<VTKFile type="PolyData" version="0.1" byte_order="LittleEndian">
    <PolyData>
        <Piece NumberOfPoints="232" NumberOfPolys="5">
            <CellData>
                <DataArray type="Float64" Name="area" format="ascii">
3.04301 3.16818 3.39449 1.53565 1.48383 
                </DataArray>
                <DataArray type="Float64" Name="c1" format="ascii">
0.0624875 0.0293872 0.041058 0.0385117 0.0404239 
                </DataArray>
                <DataArray type="Float64" Name="c2" format="ascii">
0.317906 0.382654 0.3188 0.372933 0.372079 
                </DataArray>
                <DataArray type="Float64" Name="grad_c1" NumberOfComponents="2" format="ascii">
0.00806667 -0.00147074 0.00786267 0.00650848 0.00500621 0.0134392 0.0147794 -0.00668981 0.0164738 0.00311055 
                </DataArray>
                <DataArray type="Float64" Name="grad_c2" NumberOfComponents="2" format="ascii">
-0.0349636 0.00168874 -0.0413115 -0.00122624 -0.0351071 -0.00343169 -0.0418074 0.00173743 -0.0436903 0.000482289 
                </DataArray>
                <DataArray type="Float64" Name="D1" format="ascii">
20.1884 47.8887 46.4257 29.5543 23.66 
                </DataArray>
                <DataArray type="Float64" Name="D2" format="ascii">
28.1376 29.476 55.2662 32.7903 26.1502 
                </DataArray>
                <DataArray type="Float64" Name="k1" format="ascii">
0.910378 0.571072 1.14395 1.54432 0.926629 
                </DataArray>
                <DataArray type="Float64" Name="k2" format="ascii">
0.1 0.1 0.1 0.1 0.1 
                </DataArray>
                <DataArray type="Float64" Name="k3" format="ascii">
1 1 1 1 1 
                </DataArray>
                <DataArray type="Int64" Name="cell_type" format="ascii">
0 1 1 1 1 
                </DataArray>
                <DataArray type="Float64" Name="perimeter" format="ascii">
6.28312 6.48812 6.66847 4.4706 4.45297 
                </DataArray>
                <DataArray type="Float64" Name="neighbors" format="ascii">
3 2 2 2 3 
                </DataArray>
            </CellData>
            <Points>
                <DataArray type="Float64" Name="Points" NumberOfComponents="3" format="ascii">
-1.81619 1.82918 0 -1.97258 1.77395 0 -2.1165 1.6941 0 -2.18334 1.56018 0 -2.25421 1.42825 0 -2.32979 1.29745 0 -2.40732 1.16889 0 -2.43978 1.03828 0 -2.4493 0.901929 0 -2.40901 0.767368 0 -2.37214 0.632215 0 -2.34014 0.498007 0 -2.31371 0.36228 0 -2.29272 0.225019 0 -2.27803 0.0890532 0 -2.16495 -0.0079828 0 -2.08335 -0.0613547 0 -1.99662 -0.104972 0 -1.84779 -0.100628 0 -1.75009 -0.0970306 0 -1.65259 -0.0940081 0 -1.5547 -0.0916158 0 -1.45722 -0.0883623 0 -1.35973 -0.0860936 0 -1.26212 -0.0831509 0 -1.16455 -0.079979 0 -1.07029 -0.0374102 0 -0.980362 0.0142512 0 -0.896017 0.074737 0 -0.818858 0.143162 0 -0.749377 0.218114 0 -0.687074 0.299664 0 -0.632938 0.387098 0 -0.580048 0.503452 0 -0.54407 0.627144 0 -0.524621 0.755693 0 -0.521463 0.885758 0 -0.534633 1.0153 0 -0.565041 1.14238 0 -0.612369 1.26487 0 -0.67465 1.38059 0 -0.750382 1.48676 0 -0.83949 1.58181 0 -0.941446 1.66483 0 -1.05411 1.73429 0 -1.17408 1.78921 0 -1.29935 1.82973 0 -1.42793 1.85444 0 -1.55771 1.86242 0 -1.68762 1.85413 0 -2.73827 -2.03823 0 -2.59431 -1.95714 0 -2.46565 -1.85416 0 -2.35566 -1.73159 0 -2.3558 -1.58908 0 -2.35609 -1.44616 0 -2.35639 -1.30334 0 -2.35663 -1.16143 0 -2.35666 -1.02069 0 -2.35648 -0.88084 0 -2.35606 -0.740979 0 -2.35548 -0.601217 0 -2.35408 -0.461993 0 -2.35239 -0.323201 0 -2.4257 -0.25784 0 -2.50481 -0.199044 0 -2.66064 -0.195272 0 -2.81678 -0.188385 0 -2.9183 -0.179993 0 -3.02008 -0.168029 0 -3.12083 -0.151997 0 -3.22266 -0.134626 0 -3.3238 -0.116057 0 -3.4243 -0.0943882 0 -3.52839 -0.12353 0 -3.62837 -0.164356 0 -3.72404 -0.214477 0 -3.8136 -0.274941 0 -3.89595 -0.345046 0 -3.96978 -0.423139 0 -4.03532 -0.509446 0 -4.0923 -0.602867 0 -4.14919 -0.727278 0 -4.18972 -0.858343 0 -4.21184 -0.99335 0 -4.2155 -1.13051 0 -4.20118 -1.26554 0 -4.16955 -1.39754 0 -4.12146 -1.52437 0 -4.05739 -1.64414 0 -3.97748 -1.75482 0 -3.88435 -1.8545 0 -3.77982 -1.94149 0 -3.66366 -2.01302 0 -3.5388 -2.06963 0 -3.40743 -2.10941 0 -3.27178 -2.13089 0 -3.13476 -2.134 0 -2.99812 -2.11868 0 -2.86527 -2.08686 0 -1.8962 -0.11226 0 -2.00147 -0.116631 0 -2.0918 -0.15721 0 -2.17911 -0.204748 0 -2.26199 -0.259916 0 -2.33954 -0.321435 0 -2.34396 -0.448763 0 -2.3453 -0.576105 0 -2.34595 -0.703002 0 -2.34639 -0.830664 0 -2.34664 -0.958322 0 -2.3467 -1.08513 0 -2.34659 -1.21304 0 -2.34634 -1.34306 0 -2.34607 -1.47344 0 -2.34581 -1.60424 0 -2.34392 -1.7359 0 -2.23143 -1.8711 0 -2.09928 -1.98414 0 -1.94962 -2.07298 0 -1.81506 -2.127 0 -1.67452 -2.16134 0 -1.53051 -2.17567 0 -1.3855 -2.1705 0 -1.24228 -2.14562 0 -1.10456 -2.10154 0 -0.974547 -2.03999 0 -0.85357 -1.96162 0 -0.744208 -1.86752 0 -0.649191 -1.76018 0 -0.570217 -1.64079 0 -0.507465 -1.5111 0 -0.461069 -1.37433 0 -0.432773 -1.23305 0 -0.423957 -1.08993 0 -0.434484 -0.94725 0 -0.463288 -0.806415 0 -0.510257 -0.670989 0 -0.560688 -0.570068 0 -0.622298 -0.475894 0 -0.694225 -0.388896 0 -0.774813 -0.309866 0 -0.863193 -0.240117 0 -0.958106 -0.180022 0 -1.05837 -0.129934 0 -1.16344 -0.090654 0 -1.26842 -0.0933005 0 -1.37284 -0.0964419 0 -1.47742 -0.0989934 0 -1.58214 -0.102424 0 -1.68684 -0.10504 0 -1.79123 -0.108845 0 -3.60446 1.49871 0 -3.57746 1.38732 0 -3.53213 1.28219 0 -3.4707 1.18612 0 -3.39591 1.09863 0 -3.30722 1.0947 0 -3.21841 1.09128 0 -3.12971 1.08781 0 -3.04051 1.0825 0 -2.95149 1.07671 0 -2.86249 1.07014 0 -2.77305 1.06323 0 -2.6842 1.05575 0 -2.59566 1.04919 0 -2.5031 1.10124 0 -2.42033 1.1665 0 -2.37338 1.24436 0 -2.30716 1.35632 0 -2.24344 1.46915 0 -2.18329 1.58244 0 -2.12551 1.70192 0 -2.16349 1.86188 0 -2.19546 1.93723 0 -2.23486 2.00899 0 -2.31264 2.11338 0 -2.40695 2.20257 0 -2.51635 2.27376 0 -2.63423 2.32619 0 -2.7577 2.35752 0 -2.88605 2.36721 0 -3.01382 2.35549 0 -3.13917 2.32081 0 -3.25525 2.26522 0 -3.35957 2.1917 0 -3.45024 2.10074 0 -3.52288 1.9949 0 -3.57497 1.87761 0 -3.60664 1.75361 0 -3.61604 1.62636 0 -2.43493 0.819375 0 -2.46 0.901882 0 -2.52487 0.975334 0 -2.59968 1.03817 0 -2.68841 1.04611 0 -2.77734 1.05358 0 -2.86664 1.06046 0 -2.95682 1.06709 0 -3.04634 1.07287 0 -3.13649 1.07813 0 -3.22471 1.08155 0 -3.31184 1.08492 0 -3.39913 1.08656 0 -3.48495 1.00686 0 -3.55826 0.917291 0 -3.61652 0.816132 0 -3.65914 0.708655 0 -3.68789 0.580829 0 -3.69341 0.449631 0 -3.68168 0.346687 0 -3.65615 0.246693 0 -3.61647 0.152411 0 -3.56428 0.065828 0 -3.50089 -0.0133978 0 -3.42504 -0.0826536 0 -3.33935 -0.102555 0 -3.25386 -0.118861 0 -3.08212 -0.148167 0 -2.99598 -0.160893 0 -2.90842 -0.170847 0 -2.82092 -0.17807 0 -2.73339 -0.18212 0 -2.64668 -0.185689 0 -2.50717 -0.186946 0 -2.38319 -0.0655295 0 -2.28884 0.0817866 0 -2.3009 0.208743 0 -2.31932 0.33373 0 -2.34218 0.457122 0 -2.36984 0.580062 0 -2.40095 0.700408 0 
                </DataArray>
            </Points>
            <Polys>
                <DataArray type="Int64" Name="connectivity" format="ascii">
0 1 2 3 4 5 6 7 8 9 10 11 12 13 14 15 16 17 18 19 20 21 22 23 24 25 26 27 28 29 30 31 32 33 34 35 36 37 38 39 40 41 42 43 44 45 46 47 48 49 50 51 52 53 54 55 56 57 58 59 60 61 62 63 64 65 66 67 68 69 70 71 72 73 74 75 76 77 78 79 80 81 82 83 84 85 86 87 88 89 90 91 92 93 94 95 96 97 98 99 100 101 102 103 104 105 106 107 108 109 110 111 112 113 114 115 116 117 118 119 120 121 122 123 124 125 126 127 128 129 130 131 132 133 134 135 136 137 138 139 140 141 142 143 144 145 146 147 148 149 150 151 152 153 154 155 156 157 158 159 160 161 162 163 164 165 166 167 168 169 170 171 172 173 174 175 176 177 178 179 180 181 182 183 184 185 186 187 188 189 190 191 192 193 194 195 196 197 198 199 200 201 202 203 204 205 206 207 208 209 210 211 212 213 214 215 216 217 218 219 220 221 222 223 224 225 226 227 228 229 230 231 
                </DataArray>
                <DataArray type="Int64" Name="offsets" format="ascii">
50 100 152 191 232 
                </DataArray>
            </Polys>
        </Piece>
    </PolyData>
</VTKFile>
