<VTKFile type="PolyData" version="0.1" byte_order="LittleEndian">
    <PolyData>
        <Piece NumberOfPoints="1534" NumberOfPolys="35">
            <CellData>
                <DataArray type="Float64" Name="area" format="ascii">
1.73052 2.37768 2.4502 1.30443 1.74633 2.20759 2.45109 2.10623 2.54313 1.58105 2.49095 2.12425 1.97328 2.83678 3.18326 2.58258 1.58255 1.59678 1.43522 2.83233 2.61005 2.30228 2.26972 2.06845 2.93204 1.97649 1.7184 1.9155 1.66823 1.89115 1.66098 1.44996 1.371 1.73795 1.26894 
                </DataArray>
                <DataArray type="Float64" Name="c1" format="ascii">
0.0548224 0.0250109 0.0283828 0.0277056 0.0259296 0.014452 0.0349931 0.0467457 0.0161938 0.0339818 0.0158116 0.019844 0.0195955 0.0361539 0.045993 0.0383782 0.0185102 0.0413806 0.0257266 0.036288 0.0151526 0.0180363 0.0217464 0.0286701 0.0220072 0.0181989 0.0478587 0.0446236 0.022543 0.0252922 0.0255756 0.0312372 0.0220487 0.0448316 0.0348369 
                </DataArray>
                <DataArray type="Float64" Name="c2" format="ascii">
0.517849 0.610513 0.524209 0.626728 0.662774 0.819962 0.469144 0.439614 0.782808 0.500979 0.641171 0.747896 0.542633 0.591719 0.46348 0.454607 0.71217 0.527205 0.598581 0.519148 0.752 0.661402 0.706038 0.612616 0.576204 0.766953 0.425514 0.474962 0.676078 0.489539 0.666439 0.552525 0.677665 0.529193 0.591442 
                </DataArray>
                <DataArray type="Float64" Name="grad_c1" NumberOfComponents="2" format="ascii">
0.00202194 -0.0017973 0.00338534 0.00317986 0.00227031 0.00500551 0.00409712 -0.00403973 0.00543426 -0.00137397 0.00186339 0.00117698 0.00155876 0.00568851 0.00232371 -0.00243255 0.00244084 -0.00165371 0.000926546 -0.00632738 0.00116992 0.00253294 0.0036291 0.000257711 0.00102154 0.0033643 0.00977651 0.000439795 -0.00124429 0.00473773 0.000982309 -0.00614678 0.00273694 0.0018885 0.00174554 -0.0115298 0.00202947 -0.00465967 0.00336701 0.00558928 0.00174222 0.00180453 0.00200126 0.00252648 0.00401225 -0.00198438 0.00478803 0.00231185 0.00191243 0.00361689 0.00295283 0.00095222 0.00655151 -0.00716092 -0.00285313 -0.0075452 0.00293859 -0.00331644 0.00138283 0.00484023 0.0050222 -8.92317e-05 0.00247261 -0.00662219 0.00362473 0.00197381 0.00654962 0.00963343 0.00689049 -0.00661507 
                </DataArray>
                <DataArray type="Float64" Name="grad_c2" NumberOfComponents="2" format="ascii">
-0.0480244 0.00268359 -0.0508574 -0.00526524 -0.0359394 -0.000248486 -0.0572557 0.0161009 -0.0522183 0.0156439 -0.073882 -0.0147937 -0.0313302 -0.00293752 -0.0187959 0.00459101 -0.062854 0.00483906 -0.0310027 0.0205213 -0.0552111 -0.0198879 -0.0655598 0.00322658 -0.0409732 -0.0226198 -0.0392306 0.0137608 -0.0301992 0.00178743 -0.021433 0.0116858 -0.0656916 -0.00897206 -0.0502561 0.00277338 -0.0608691 0.0195728 -0.0358202 -0.0043071 -0.0691839 -0.015491 -0.0590826 -0.0183904 -0.0476381 0.0159514 -0.0568126 -0.00167192 -0.0520246 -0.0104617 -0.0744643 -0.00520226 -0.0155571 0.00337896 -0.0285074 0.00624557 -0.0552019 0.0186012 -0.0292928 -0.00771694 -0.0634077 0.00261142 -0.0467476 0.00998538 -0.0626664 0.00204272 -0.0386026 0.0120197 -0.0428909 -0.00287001 
                </DataArray>
                <DataArray type="Float64" Name="D1" format="ascii">
20.1884 47.8887 46.4257 29.5543 23.66 26.9155 31.6639 27.4076 30.8932 41.7876 28.6995 27.0936 25.8601 46.5973 31.4408 35.0437 37.913 16.8386 22.4411 28.3868 31.9534 36.3592 34.0147 20.1184 48.0826 38.3651 47.2917 29.8961 38.9749 43.0421 26.8686 32.3324 29.6121 52.4272 42.8323 
                </DataArray>
                <DataArray type="Float64" Name="D2" format="ascii">
28.1376 29.476 55.2662 32.7903 26.1502 20.7843 31.7025 33.9204 29.999 25.2094 41.1061 34.7848 33.2469 38.6467 34.7848 56.3213 22.3241 25.0052 21.7317 17.7694 45.6173 35.0981 35.203 30.2212 14.9015 18.5881 34.7508 28.0313 24.2088 26.0686 28.7328 30.8758 30.5008 53.0714 18.1999 
                </DataArray>
                <DataArray type="Float64" Name="k1" format="ascii">
0.910378 0.571072 1.14395 1.54432 0.926629 1.25016 0.575564 1.55852 0.945503 0.860941 0.791226 0.616893 1.05281 1.17647 0.817944 0.63907 0.482176 1.56031 0.91796 0.830993 0.79104 0.957837 0.807719 1.03161 1.08356 0.877557 1.01713 0.934678 0.868774 1.64607 0.737187 1.13232 0.856645 1.08628 0.597704 
                </DataArray>
                <DataArray type="Float64" Name="k2" format="ascii">
0.1 0.1 0.1 0.1 0.1 0.1 0.1 0.1 0.1 0.1 0.1 0.1 0.1 0.1 0.1 0.1 0.1 0.1 0.1 0.1 0.1 0.1 0.1 0.1 0.1 0.1 0.1 0.1 0.1 0.1 0.1 0.1 0.1 0.1 0.1 
                </DataArray>
                <DataArray type="Float64" Name="k3" format="ascii">
1 1 1 1 1 1 1 1 1 1 1 1 1 1 1 1 1 1 1 1 1 1 1 1 1 1 1 1 1 1 1 1 1 1 1 
                </DataArray>
                <DataArray type="Int64" Name="cell_type" format="ascii">
0 1 1 1 1 1 1 1 1 1 1 1 1 1 1 1 1 1 1 1 1 1 1 1 1 1 1 1 1 1 1 1 1 1 1 
                </DataArray>
                <DataArray type="Float64" Name="perimeter" format="ascii">
4.98368 5.84381 5.92135 4.32182 4.90173 5.40344 5.71638 5.3108 5.74507 4.54836 5.75589 5.36343 5.12565 6.33806 6.54988 5.84466 4.69204 4.65322 4.40147 6.4166 6.07559 5.76586 5.54685 5.2937 6.40142 5.16218 4.77742 5.06436 4.67144 5.03159 4.73864 4.47475 4.30452 4.94339 4.20727 
                </DataArray>
                <DataArray type="Float64" Name="neighbors" format="ascii">
5 7 5 6 5 2 4 4 1 4 3 2 3 6 6 4 6 5 3 6 3 5 4 5 5 3 2 6 3 3 4 5 4 4 5 
                </DataArray>
            </CellData>
            <Points>
                <DataArray type="Float64" Name="Points" NumberOfComponents="3" format="ascii">
-6.45858 1.51753 0 -6.45181 1.42684 0 -6.44218 1.32348 0 -6.38278 1.21779 0 -6.2943 1.18178 0 -6.19854 1.14215 0 -6.10236 1.10426 0 -6.00937 1.06932 0 -5.92133 1.03708 0 -5.82592 0.999392 0 -5.72073 0.95175 0 -5.62186 0.905862 0 -5.53169 0.861843 0 -5.43222 0.808367 0 -5.33224 0.760612 0 -5.23618 0.750432 0 -5.1279 0.756478 0 -5.03199 0.860091 0 -4.94453 0.96171 0 -4.86296 1.06476 0 -4.79222 1.17563 0 -4.72865 1.28921 0 -4.67038 1.40436 0 -4.70901 1.49147 0 -4.78301 1.56713 0 -4.85444 1.64036 0 -4.92011 1.70899 0 -4.98704 1.78174 0 -5.05357 1.85643 0 -5.14072 1.95987 0 -5.25639 2.02452 0 -5.38053 2.06357 0 -5.50714 2.07156 0 -5.6297 2.07918 0 -5.75419 2.08705 0 -5.88623 2.09568 0 -6.01487 2.10517 0 -6.13281 2.11692 0 -6.23349 2.07032 0 -6.3601 1.98117 0 -6.46353 1.86506 0 -6.46714 1.75284 0 -6.46201 1.64122 0 -7.02441 -1.08693 0 -7.08138 -0.973876 0 -7.18672 -0.909338 0 -7.28501 -0.928505 0 -7.3837 -0.949053 0 -7.48395 -0.969408 0 -7.58223 -0.988209 0 -7.68625 -1.00509 0 -7.78984 -1.0182 0 -7.89611 -1.02938 0 -8.00055 -1.03953 0 -8.09967 -1.04867 0 -8.2019 -1.05715 0 -8.3041 -1.06535 0 -8.39367 -1.13439 0 -8.47205 -1.21434 0 -8.52474 -1.33384 0 -8.56112 -1.41136 0 -8.60124 -1.49544 0 -8.68752 -1.6584 0 -8.73454 -1.73859 0 -8.78577 -1.81804 0 -8.79773 -1.92336 0 -8.79719 -2.0257 0 -8.77833 -2.12298 0 -8.76172 -2.22837 0 -8.74703 -2.32623 0 -8.73034 -2.43255 0 -8.65721 -2.49372 0 -8.5799 -2.55126 0 -8.39896 -2.58787 0 -8.28382 -2.61187 0 -8.17119 -2.63605 0 -8.02493 -2.6037 0 -7.92292 -2.53292 0 -7.82282 -2.46352 0 -7.72201 -2.39404 0 -7.621 -2.32663 0 -7.51555 -2.26401 0 -7.36939 -2.18377 0 -7.22333 -2.11196 0 -7.07409 -2.04093 0 -6.99907 -1.95885 0 -6.96251 -1.86657 0 -6.92638 -1.7753 0 -6.88972 -1.68353 0 -6.85207 -1.59257 0 -6.81238 -1.50001 0 -6.88457 -1.36301 0 -6.95576 -1.2237 0 -6.94243 -1.84272 0 -6.98694 -1.95837 0 -6.95628 -2.08776 0 -6.87724 -2.18106 0 -6.80003 -2.27559 0 -6.72276 -2.37012 0 -6.64317 -2.46617 0 -6.55941 -2.56571 0 -6.47401 -2.66704 0 -6.38972 -2.76736 0 -6.30526 -2.8667 0 -6.21842 -2.96677 0 -6.12874 -3.06818 0 -6.03531 -3.16995 0 -5.88889 -3.19991 0 -5.73794 -3.20429 0 -5.59058 -3.18504 0 -5.47449 -3.08206 0 -5.36125 -2.97778 0 -5.25465 -2.87315 0 -5.15533 -2.76883 0 -5.05702 -2.65863 0 -4.96204 -2.54136 0 -4.91569 -2.38056 0 -4.96949 -2.23599 0 -5.01074 -2.13555 0 -5.05701 -2.03518 0 -5.10704 -1.93722 0 -5.15875 -1.84119 0 -5.21316 -1.74468 0 -5.27187 -1.64851 0 -5.39868 -1.62272 0 -5.52494 -1.60164 0 -5.65209 -1.58151 0 -5.78018 -1.56203 0 -5.9075 -1.54397 0 -6.03276 -1.52795 0 -6.15862 -1.51621 0 -6.28592 -1.50825 0 -6.41427 -1.50326 0 -6.54287 -1.50073 0 -6.67211 -1.49991 0 -6.8 -1.50014 0 -6.84679 -1.60572 0 -6.89012 -1.71121 0 -8.05399 2.744 0 -7.96012 2.73316 0 -7.85979 2.75815 0 -7.75933 2.79805 0 -7.67003 2.85724 0 -7.59744 2.91093 0 -7.52117 2.96542 0 -7.44736 3.00794 0 -7.36771 3.05234 0 -7.28999 3.10302 0 -7.20785 3.14539 0 -7.1155 3.19739 0 -7.04067 3.26391 0 -6.9577 3.32237 0 -6.89327 3.43338 0 -6.87618 3.54699 0 -6.87144 3.67822 0 -6.93653 3.81661 0 -7.04121 3.8848 0 -7.15328 3.94957 0 -7.27165 4.01499 0 -7.38762 4.07617 0 -7.50841 4.07857 0 -7.61165 4.02776 0 -7.71458 3.97775 0 -7.81987 3.92765 0 -7.92969 3.87588 0 -8.04182 3.82506 0 -8.15341 3.77884 0 -8.2386 3.70509 0 -8.24247 3.61493 0 -8.24931 3.4918 0 -8.25453 3.34772 0 -8.25527 3.19662 0 -8.25213 3.06366 0 -8.24414 2.90863 0 -8.19233 2.80868 0 -8.11695 2.77273 0 -9.46611 1.77558 0 -9.42889 1.6961 0 -9.37702 1.6186 0 -9.3188 1.55157 0 -9.22349 1.55278 0 -9.12582 1.55239 0 -9.02513 1.55022 0 -8.93277 1.54857 0 -8.84364 1.54624 0 -8.75491 1.54344 0 -8.66521 1.53848 0 -8.57779 1.53241 0 -8.48601 1.52255 0 -8.39079 1.51001 0 -8.28068 1.53605 0 -8.17995 1.58644 0 -8.09737 1.66251 0 -8.00096 1.79951 0 -7.92447 1.9359 0 -7.85025 2.06956 0 -7.78821 2.18664 0 -7.79409 2.30177 0 -7.81221 2.40336 0 -7.83681 2.50956 0 -7.90111 2.58373 0 -7.98367 2.65627 0 -8.06399 2.7374 0 -8.19376 2.79616 0 -8.33229 2.81486 0 -8.42783 2.78985 0 -8.53241 2.76343 0 -8.63146 2.73825 0 -8.72851 2.71371 0 -8.83203 2.68677 0 -8.93588 2.65703 0 -9.03762 2.62139 0 -9.13039 2.58453 0 -9.21852 2.5525 0 -9.3093 2.52646 0 -9.36224 2.46529 0 -9.40501 2.39988 0 -9.44196 2.32767 0 -9.46843 2.25232 0 -9.48739 2.16591 0 -9.49817 2.0774 0 -9.50053 1.99336 0 -9.49498 1.90802 0 -9.48436 1.84003 0 -11.2189 -3.63945 0 -11.0847 -3.67774 0 -10.9477 -3.69476 0 -10.8092 -3.68957 0 -10.7448 -3.5948 0 -10.678 -3.50012 0 -10.61 -3.40586 0 -10.5422 -3.31168 0 -10.4736 -3.21881 0 -10.4047 -3.12738 0 -10.3364 -3.038 0 -10.2681 -2.95166 0 -10.1978 -2.86596 0 -10.1269 -2.77979 0 -10.109 -2.66352 0 -10.1681 -2.55376 0 -10.2258 -2.44395 0 -10.2716 -2.34934 0 -10.3158 -2.25435 0 -10.359 -2.1584 0 -10.4036 -2.06198 0 -10.5073 -1.99817 0 -10.6184 -1.94865 0 -10.7361 -1.91514 0 -10.8556 -1.89754 0 -10.9754 -1.89545 0 -11.0963 -1.90994 0 -11.2141 -1.9416 0 -11.3267 -1.98931 0 -11.4331 -2.05266 0 -11.5302 -2.13047 0 -11.614 -2.22038 0 -11.684 -2.3208 0 -11.7393 -2.42903 0 -11.7786 -2.54262 0 -11.8045 -2.6779 0 -11.8098 -2.81812 0 -11.7951 -2.95616 0 -11.7626 -3.0883 0 -11.7118 -3.21319 0 -11.6413 -3.32748 0 -11.5536 -3.42837 0 -11.4527 -3.51448 0 -11.3407 -3.58496 0 -4.38477 -0.664312 0 -4.50958 -0.657455 0 -4.61719 -0.701805 0 -4.7191 -0.760179 0 -4.75977 -0.852869 0 -4.80554 -0.94512 0 -4.85568 -1.03704 0 -4.90757 -1.12798 0 -4.9619 -1.21707 0 -5.01742 -1.30441 0 -5.07548 -1.39175 0 -5.13625 -1.47822 0 -5.19814 -1.56232 0 -5.26004 -1.64593 0 -5.19034 -1.76386 0 -5.12422 -1.88305 0 -5.06063 -2.00464 0 -5.01631 -2.09773 0 -4.97624 -2.19083 0 -4.94034 -2.28471 0 -4.90456 -2.37872 0 -4.83065 -2.45925 0 -4.76015 -2.48088 0 -4.69118 -2.50064 0 -4.62006 -2.52108 0 -4.54744 -2.54264 0 -4.39854 -2.5856 0 -4.32478 -2.60702 0 -4.24143 -2.62922 0 -4.14723 -2.59501 0 -4.05658 -2.55313 0 -3.97097 -2.50315 0 -3.88931 -2.44561 0 -3.81721 -2.37806 0 -3.748 -2.30574 0 -3.68672 -2.22551 0 -3.63448 -2.1422 0 -3.58723 -2.05532 0 -3.55046 -1.96634 0 -3.52289 -1.87461 0 -3.5043 -1.77792 0 -3.49843 -1.67805 0 -3.50022 -1.57334 0 -3.51552 -1.46777 0 -3.54125 -1.36563 0 -3.57298 -1.26679 0 -3.61216 -1.17448 0 -3.66215 -1.09 0 -3.72094 -1.01103 0 -3.82581 -0.897705 0 -3.95161 -0.803355 0 -4.09103 -0.7305 0 -4.23495 -0.672235 0 -2.626 0.78568 0 -2.49935 0.880879 0 -2.38862 0.99328 0 -2.29736 1.12162 0 -2.22796 1.26398 0 -2.18414 1.4158 0 -2.24038 1.50463 0 -2.29848 1.5941 0 -2.35657 1.68519 0 -2.41422 1.77766 0 -2.47211 1.87099 0 -2.53094 1.96566 0 -2.59057 2.06118 0 -2.65062 2.15744 0 -2.71218 2.25387 0 -2.82519 2.3081 0 -2.93588 2.30144 0 -3.07607 2.29077 0 -3.21395 2.27886 0 -3.34836 2.26549 0 -3.48196 2.24713 0 -3.61573 2.15737 0 -3.6918 2.03264 0 -3.76825 1.91018 0 -3.8636 1.75788 0 -3.95982 1.60315 0 -4.00452 1.5285 0 -4.00921 1.42956 0 -3.91739 1.31172 0 -3.82155 1.19307 0 -3.74696 1.11006 0 -3.66997 1.02913 0 -3.59147 0.951596 0 -3.50902 0.878253 0 -3.42232 0.808326 0 -3.33265 0.741232 0 -3.24352 0.677062 0 -3.15211 0.618796 0 -2.9673 0.642092 0 -2.78958 0.699254 0 -10.3931 3.13584 0 -10.2483 3.14803 0 -10.1071 3.18536 0 -9.97384 3.24374 0 -9.92939 3.34639 0 -9.88495 3.44823 0 -9.83902 3.55078 0 -9.79163 3.65258 0 -9.74261 3.75513 0 -9.69225 3.859 0 -9.64132 3.96218 0 -9.59032 4.06362 0 -9.53828 4.16436 0 -9.48651 4.2647 0 -9.52373 4.40823 0 -9.58444 4.54382 0 -9.66632 4.66706 0 -9.79829 4.79686 0 -9.95412 4.8982 0 -10.078 4.95165 0 -10.2081 4.98677 0 -10.3419 5.00239 0 -10.4784 4.99758 0 -10.6133 4.97211 0 -10.7419 4.92716 0 -10.8637 4.86377 0 -10.9773 4.7827 0 -11.0782 4.68644 0 -11.1629 4.57803 0 -11.2299 4.45855 0 -11.2785 4.32987 0 -11.3072 4.19632 0 -11.3156 4.06008 0 -11.3034 3.92145 0 -11.2711 3.78553 0 -11.2199 3.65853 0 -11.1504 3.54136 0 -11.0648 3.43508 0 -10.9666 3.34284 0 -10.8569 3.26549 0 -10.7368 3.20414 0 -10.624 3.16567 0 -10.5089 3.14333 0 -4.96267 4.47591 0 -5.07468 4.43939 0 -5.18393 4.38368 0 -5.28287 4.31536 0 -5.37078 4.23241 0 -5.37632 4.15295 0 -5.38201 4.07612 0 -5.38875 3.99092 0 -5.39537 3.90925 0 -5.40058 3.83205 0 -5.4056 3.7565 0 -5.41081 3.678 0 -5.4181 3.60108 0 -5.42189 3.53107 0 -5.35197 3.45209 0 -5.26139 3.39025 0 -5.18042 3.33621 0 -5.05277 3.25257 0 -4.93091 3.16751 0 -4.84 3.1266 0 -4.74233 3.10192 0 -4.6457 3.11828 0 -4.55836 3.13319 0 -4.46506 3.14963 0 -4.37462 3.1658 0 -4.29209 3.18749 0 -4.21558 3.22305 0 -4.15582 3.36405 0 -4.11741 3.44643 0 -4.08147 3.52538 0 -4.04717 3.60562 0 -4.01641 3.68094 0 -3.98382 3.75972 0 -3.95375 3.83795 0 -3.97283 3.9298 0 -4.00474 4.02011 0 -4.06948 4.1415 0 -4.15753 4.24867 0 -4.26597 4.33686 0 -4.38294 4.41054 0 -4.51575 4.46403 0 -4.65705 4.48968 0 -4.80886 4.4976 0 -7.03626 -4.2714 0 -7.12904 -4.24039 0 -7.28571 -4.18538 0 -7.44262 -4.12804 0 -7.61052 -4.11528 0 -7.71016 -4.17378 0 -7.80974 -4.233 0 -7.90879 -4.2908 0 -8.00806 -4.34757 0 -8.10958 -4.40198 0 -8.21281 -4.45292 0 -8.31659 -4.49998 0 -8.41962 -4.54292 0 -8.52253 -4.58279 0 -8.62681 -4.61972 0 -8.65516 -4.74807 0 -8.66276 -4.87915 0 -8.65041 -5.01086 0 -8.62807 -5.10709 0 -8.59589 -5.20053 0 -8.55279 -5.29042 0 -8.50078 -5.37813 0 -8.43912 -5.46165 0 -8.36799 -5.53753 0 -8.26123 -5.6232 0 -8.1445 -5.69363 0 -8.02003 -5.74692 0 -7.88643 -5.78159 0 -7.74482 -5.80062 0 -7.60004 -5.80286 0 -7.45879 -5.78498 0 -7.32351 -5.74814 0 -7.19345 -5.69224 0 -7.07365 -5.61853 0 -6.96827 -5.52763 0 -6.87558 -5.42409 0 -6.7965 -5.30969 0 -6.7366 -5.18517 0 -6.6891 -5.02746 0 -6.66728 -4.86473 0 -6.71848 -4.72601 0 -6.77044 -4.58464 0 -6.82122 -4.44186 0 -6.87888 -4.36927 0 -6.94631 -4.30009 0 -11.061 0.318172 0 -11.0161 0.176314 0 -10.9461 0.0413589 0 -10.8568 -0.0827145 0 -10.745 -0.0974671 0 -10.6335 -0.109876 0 -10.5185 -0.12249 0 -10.4041 -0.136169 0 -10.2867 -0.149514 0 -10.1699 -0.162792 0 -10.0516 -0.176326 0 -9.93164 -0.190721 0 -9.81506 -0.205859 0 -9.71075 -0.216374 0 -9.58 -0.152177 0 -9.46245 -0.06226 0 -9.35922 0.0505262 0 -9.26115 0.21651 0 -9.33167 0.35724 0 -9.40018 0.507431 0 -9.43842 0.595324 0 -9.47668 0.683702 0 -9.51194 0.776099 0 -9.54694 0.868532 0 -9.58054 0.960716 0 -9.61332 1.0545 0 -9.64461 1.15226 0 -9.76399 1.21471 0 -9.89315 1.26292 0 -10.0276 1.2934 0 -10.1651 1.30965 0 -10.3028 1.30981 0 -10.4374 1.28978 0 -10.5628 1.24895 0 -10.6825 1.18906 0 -10.7928 1.11057 0 -10.8864 1.02033 0 -10.9617 0.921583 0 -11.0291 0.78343 0 -11.0704 0.63575 0 -11.0801 0.477092 0 -5.09419 -4.53 0 -5.06215 -4.40718 0 -5.04635 -4.28533 0 -5.04358 -4.16116 0 -5.10877 -4.09508 0 -5.17571 -4.02909 0 -5.24063 -3.96828 0 -5.30713 -3.90807 0 -5.37127 -3.84641 0 -5.43572 -3.78495 0 -5.50303 -3.72497 0 -5.56743 -3.65835 0 -5.63636 -3.59646 0 -5.75426 -3.58696 0 -5.8675 -3.59795 0 -5.98279 -3.6235 0 -6.09219 -3.66464 0 -6.15637 -3.72935 0 -6.2219 -3.79581 0 -6.28629 -3.85652 0 -6.35269 -3.91637 0 -6.41913 -3.97462 0 -6.48722 -4.03448 0 -6.56065 -4.09818 0 -6.63693 -4.16277 0 -6.71371 -4.22276 0 -6.79223 -4.27846 0 -6.80965 -4.44466 0 -6.77936 -4.52983 0 -6.7477 -4.6177 0 -6.71619 -4.70336 0 -6.68463 -4.78895 0 -6.6568 -4.86082 0 -6.59369 -4.91983 0 -6.45782 -5.02085 0 -6.30252 -5.09564 0 -6.13879 -5.14504 0 -5.9713 -5.16406 0 -5.79799 -5.15036 0 -5.65926 -5.11039 0 -5.53112 -5.05377 0 -5.41707 -4.97842 0 -5.30964 -4.88493 0 -5.22413 -4.77829 0 -5.14961 -4.66056 0 -7.3906 2.16415 0 -7.4913 2.17976 0 -7.64726 2.206 0 -7.78063 2.17691 0 -7.86778 2.01757 0 -7.94863 1.87003 0 -8.01724 1.75309 0 -8.10066 1.6419 0 -8.17684 1.50664 0 -8.23777 1.35904 0 -8.2125 1.20157 0 -8.18526 1.0382 0 -8.15777 0.873321 0 -8.13152 0.715294 0 -8.11476 0.560396 0 -8.00206 0.441244 0 -7.86765 0.37626 0 -7.73364 0.309833 0 -7.58786 0.234154 0 -7.44261 0.157011 0 -7.32795 0.0939636 0 -7.21429 0.0311309 0 -7.11624 0.0692156 0 -7.0275 0.124882 0 -6.94853 0.188614 0 -6.89259 0.265039 0 -6.87883 0.36952 0 -6.856 0.468486 0 -6.82552 0.571173 0 -6.78775 0.673228 0 -6.74082 0.775634 0 -6.69039 0.882402 0 -6.63459 0.979838 0 -6.56459 1.0796 0 -6.48741 1.18932 0 -6.45288 1.33187 0 -6.46756 1.48899 0 -6.47222 1.64706 0 -6.47713 1.75402 0 -6.47534 1.85814 0 -6.53344 1.93818 0 -6.59227 2.01313 0 -6.66405 2.08159 0 -6.74547 2.13963 0 -6.84186 2.13737 0 -6.93012 2.13625 0 -7.01573 2.13756 0 -7.10682 2.14091 0 -7.20148 2.1451 0 -7.29454 2.15233 0 -4.01638 1.4203 0 -4.12426 1.45463 0 -4.20725 1.44605 0 -4.2894 1.43939 0 -4.46682 1.42807 0 -4.5561 1.42559 0 -4.65849 1.39899 0 -4.72025 1.28384 0 -4.78325 1.17121 0 -4.85522 1.05844 0 -4.9418 0.949227 0 -5.03081 0.846298 0 -5.12387 0.746644 0 -5.15985 0.663116 0 -5.19117 0.575998 0 -5.1992 0.424206 0 -5.21036 0.269773 0 -5.22932 0.117826 0 -5.25835 -0.02211 0 -5.23613 -0.10704 0 -5.16906 -0.166289 0 -5.09917 -0.22672 0 -5.02928 -0.289324 0 -4.95845 -0.35434 0 -4.88426 -0.424351 0 -4.80927 -0.498512 0 -4.71352 -0.555926 0 -4.61446 -0.603909 0 -4.51399 -0.647077 0 -4.42085 -0.652364 0 -4.32754 -0.657367 0 -4.2378 -0.661853 0 -4.15176 -0.645457 0 -4.0695 -0.623055 0 -3.99092 -0.595713 0 -3.91233 -0.56722 0 -3.83559 -0.534414 0 -3.76115 -0.496157 0 -3.68781 -0.453205 0 -3.61534 -0.405865 0 -3.54411 -0.355198 0 -3.45908 -0.284052 0 -3.38309 -0.200255 0 -3.32107 -0.109748 0 -3.26917 -0.0127486 0 -3.22663 0.0886057 0 -3.19406 0.192965 0 -3.17177 0.298553 0 -3.16006 0.403904 0 -3.15872 0.508989 0 -3.16679 0.614355 0 -3.25407 0.672153 0 -3.3406 0.734702 0 -3.42829 0.80034 0 -3.5142 0.869569 0 -3.59577 0.941899 0 -3.6733 1.01824 0 -3.74908 1.09763 0 -3.82281 1.17896 0 -3.88944 1.26078 0 -3.95319 1.34085 0 -3.65005 2.37843 0 -3.60461 2.30091 0 -3.4788 2.25767 0 -3.34937 2.2754 0 -3.22119 2.28819 0 -3.09108 2.29955 0 -2.96011 2.30964 0 -2.82756 2.3192 0 -2.70658 2.39603 0 -2.63539 2.5139 0 -2.56471 2.63006 0 -2.49341 2.7435 0 -2.42247 2.8517 0 -2.34825 2.95728 0 -2.26767 3.06304 0 -2.27591 3.22061 0 -2.3088 3.3673 0 -2.36228 3.51145 0 -2.43156 3.63968 0 -2.51897 3.75811 0 -2.62733 3.86428 0 -2.74952 3.9466 0 -2.8792 4.01336 0 -3.01544 4.0653 0 -3.15873 4.09724 0 -3.30381 4.10368 0 -3.44473 4.08484 0 -3.57807 4.04852 0 -3.70634 3.99164 0 -3.82879 3.92173 0 -3.94348 3.8334 0 -3.97493 3.7551 0 -4.00781 3.67561 0 -4.03962 3.59778 0 -4.072 3.52212 0 -4.10485 3.44983 0 -4.14176 3.37071 0 -4.17536 3.29251 0 -4.20568 3.21635 0 -4.18155 3.13638 0 -4.10841 3.05138 0 -4.0576 2.98632 0 -4.00679 2.91692 0 -3.95427 2.84753 0 -3.90365 2.77337 0 -3.85107 2.69744 0 -3.79974 2.61855 0 -3.7479 2.53885 0 -3.69716 2.4581 0 -8.78685 -2.13291 0 -8.80608 -2.03199 0 -8.84922 -1.93938 0 -8.90534 -1.86009 0 -8.9945 -1.83351 0 -9.09234 -1.80008 0 -9.18344 -1.76569 0 -9.27447 -1.73026 0 -9.36577 -1.69239 0 -9.45421 -1.65165 0 -9.54583 -1.61022 0 -9.63045 -1.56821 0 -9.71158 -1.52568 0 -9.78949 -1.48016 0 -9.89681 -1.4798 0 -9.99079 -1.53096 0 -10.0834 -1.58342 0 -10.2004 -1.65962 0 -10.2898 -1.78067 0 -10.3545 -1.91311 0 -10.3933 -2.05703 0 -10.3417 -2.17277 0 -10.3035 -2.25709 0 -10.265 -2.34 0 -10.2253 -2.42272 0 -10.1824 -2.50415 0 -10.1398 -2.5848 0 -10.0966 -2.66119 0 -9.99323 -2.72073 0 -9.87637 -2.73185 0 -9.75889 -2.73998 0 -9.64187 -2.74827 0 -9.5237 -2.75664 0 -9.40544 -2.76496 0 -9.28873 -2.77211 0 -9.17129 -2.77927 0 -9.05271 -2.78459 0 -8.95757 -2.7118 0 -8.864 -2.63453 0 -8.7963 -2.54025 0 -8.74013 -2.43835 0 -8.76375 -2.28378 0 -5.56471 2.08504 0 -5.38021 2.0742 0 -5.29173 2.1132 0 -5.20861 2.17324 0 -5.14451 2.33948 0 -5.1123 2.42245 0 -5.07891 2.50651 0 -5.0078 2.66872 0 -4.93129 2.83083 0 -4.86386 3.00406 0 -4.94263 3.16369 0 -5.0784 3.2576 0 -5.22136 3.35113 0 -5.36172 3.44647 0 -5.51906 3.45816 0 -5.6866 3.40041 0 -5.84609 3.32059 0 -6.00201 3.24625 0 -6.15683 3.17132 0 -6.30515 3.10125 0 -6.35604 3.01661 0 -6.39127 2.92957 0 -6.39272 2.84113 0 -6.39364 2.761 0 -6.39503 2.68264 0 -6.39768 2.6027 0 -6.40676 2.48717 0 -6.33315 2.34148 0 -6.24135 2.22032 0 -6.13594 2.12837 0 -6.02431 2.11606 0 -5.90752 2.10723 0 -5.79334 2.09954 0 -5.68082 2.0924 0 -7.06827 5.33246 0 -7.17814 5.29528 0 -7.28146 5.23769 0 -7.37468 5.15992 0 -7.45332 5.06849 0 -7.45079 4.97293 0 -7.44541 4.88006 0 -7.43956 4.78661 0 -7.4337 4.69661 0 -7.42919 4.61087 0 -7.42713 4.52544 0 -7.42847 4.43792 0 -7.4345 4.35021 0 -7.44131 4.263 0 -7.44412 4.173 0 -7.38893 4.08782 0 -7.32139 4.05266 0 -7.23357 4.00602 0 -7.13571 3.95107 0 -7.03168 3.89066 0 -6.93565 3.82961 0 -6.80239 3.86912 0 -6.70381 3.96825 0 -6.58969 4.08276 0 -6.48553 4.19402 0 -6.3835 4.30439 0 -6.2707 4.42306 0 -6.23725 4.52918 0 -6.21993 4.64002 0 -6.22025 4.75426 0 -6.23905 4.86565 0 -6.27662 4.9689 0 -6.3338 5.06254 0 -6.40446 5.14357 0 -6.48309 5.21157 0 -6.61962 5.29168 0 -6.76692 5.3401 0 -6.91787 5.35216 0 -5.69377 -1.56495 0 -5.55285 -1.58704 0 -5.41155 -1.61014 0 -5.26957 -1.63784 0 -5.20555 -1.55558 0 -5.14433 -1.47237 0 -5.08403 -1.38659 0 -5.0246 -1.29716 0 -4.96774 -1.20755 0 -4.91455 -1.12016 0 -4.86387 -1.03125 0 -4.81402 -0.939816 0 -4.76831 -0.847582 0 -4.72898 -0.753814 0 -4.7638 -0.626611 0 -4.8153 -0.507754 0 -4.89944 -0.423661 0 -5.00826 -0.321952 0 -5.12785 -0.215619 0 -5.24814 -0.111034 0 -5.36387 -0.099468 0 -5.46235 -0.117224 0 -5.56146 -0.131 0 -5.66004 -0.139473 0 -5.76149 -0.14723 0 -5.86835 -0.15482 0 -5.96301 -0.151738 0 -6.05648 -0.150302 0 -6.15286 -0.151693 0 -6.24015 -0.154181 0 -6.32962 -0.158119 0 -6.4241 -0.158129 0 -6.51818 -0.154644 0 -6.61218 -0.152574 0 -6.7695 -0.237642 0 -6.90494 -0.343815 0 -7.0219 -0.469205 0 -7.04008 -0.55716 0 -7.05746 -0.643796 0 -7.08805 -0.787169 0 -7.07411 -0.963982 0 -7.0086 -1.09633 0 -6.94355 -1.22577 0 -6.87674 -1.3565 0 -6.80582 -1.48816 0 -6.69664 -1.48993 0 -6.58503 -1.4903 0 -6.47377 -1.49175 0 -6.36326 -1.49481 0 -6.25274 -1.49991 0 -6.14205 -1.50743 0 -6.0306 -1.51817 0 -5.91839 -1.53244 0 -5.80639 -1.54811 0 -9.76994 -2.74918 0 -9.88492 -2.74118 0 -9.9978 -2.73132 0 -10.1162 -2.78392 0 -10.188 -2.86977 0 -10.2586 -2.95582 0 -10.3279 -3.04332 0 -10.3967 -3.13332 0 -10.466 -3.22523 0 -10.5349 -3.31868 0 -10.603 -3.41319 0 -10.6716 -3.50827 0 -10.7395 -3.60457 0 -10.8028 -3.7018 0 -10.7769 -3.87364 0 -10.7208 -4.04104 0 -10.6358 -4.19703 0 -10.5307 -4.32845 0 -10.4047 -4.43989 0 -10.2621 -4.52956 0 -10.1499 -4.57979 0 -10.0319 -4.6157 0 -9.90915 -4.63629 0 -9.78339 -4.64129 0 -9.65729 -4.63101 0 -9.5336 -4.60621 0 -9.41447 -4.56733 0 -9.30136 -4.51439 0 -9.19534 -4.44772 0 -9.09754 -4.36786 0 -9.10212 -4.18801 0 -9.10554 -4.01067 0 -9.10864 -3.83536 0 -9.10801 -3.65815 0 -9.10314 -3.4828 0 -9.0976 -3.31197 0 -9.08689 -3.14015 0 -9.07472 -2.96884 0 -9.0581 -2.7965 0 -9.22099 -2.78615 0 -9.38148 -2.77655 0 -9.47752 -2.7699 0 -9.5747 -2.76301 0 -9.08444 -4.37038 0 -8.94912 -4.47554 0 -8.79917 -4.55623 0 -8.63853 -4.61115 0 -8.53109 -4.57529 0 -8.42677 -4.53505 0 -8.32337 -4.49204 0 -8.21988 -4.44523 0 -8.1168 -4.39447 0 -8.01645 -4.34081 0 -7.91837 -4.28483 0 -7.81973 -4.22732 0 -7.7208 -4.16854 0 -7.62333 -4.10961 0 -7.60028 -3.99446 0 -7.6337 -3.90342 0 -7.66823 -3.81301 0 -7.71166 -3.69249 0 -7.75615 -3.56932 0 -7.80008 -3.4484 0 -7.84628 -3.32901 0 -7.89257 -3.20904 0 -7.9375 -3.09261 0 -8.00304 -2.9245 0 -8.03982 -2.83713 0 -8.07559 -2.74453 0 -8.17986 -2.64489 0 -8.33083 -2.61218 0 -8.45724 -2.58622 0 -8.58313 -2.562 0 -8.71663 -2.5895 0 -8.85039 -2.63607 0 -8.94752 -2.71663 0 -9.04546 -2.79211 0 -9.06437 -2.96436 0 -9.07684 -3.13895 0 -9.08758 -3.31051 0 -9.09322 -3.48356 0 -9.0981 -3.65989 0 -9.09869 -3.83582 0 -9.09557 -4.01218 0 -9.09212 -4.19062 0 -8.91102 4.30013 0 -9.05116 4.32428 0 -9.19444 4.32721 0 -9.33794 4.30527 0 -9.47711 4.25711 0 -9.53565 4.14785 0 -9.59289 4.03644 0 -9.64915 3.92393 0 -9.70425 3.81153 0 -9.75814 3.69967 0 -9.81173 3.58597 0 -9.86373 3.47138 0 -9.91388 3.35718 0 -9.96263 3.23968 0 -9.91433 3.08936 0 -9.84247 2.94641 0 -9.7475 2.81797 0 -9.65646 2.72815 0 -9.55702 2.64892 0 -9.44123 2.58271 0 -9.31634 2.53659 0 -9.22804 2.56005 0 -9.13711 2.59265 0 -9.03697 2.63231 0 -8.92928 2.6698 0 -8.81326 2.70232 0 -8.70065 2.73101 0 -8.52526 2.77574 0 -8.34566 2.82173 0 -8.25443 2.91873 0 -8.26363 3.09422 0 -8.26592 3.25182 0 -8.26315 3.41677 0 -8.25469 3.57344 0 -8.24965 3.71005 0 -8.29178 3.78782 0 -8.36008 3.8435 0 -8.42438 3.90306 0 -8.48893 3.96598 0 -8.55327 4.02913 0 -8.61637 4.09645 0 -8.68164 4.1658 0 -8.74825 4.23684 0 -8.57747 -0.806636 0 -8.51 -0.908871 0 -8.41679 -0.992591 0 -8.3033 -1.05396 0 -8.19487 -1.04659 0 -8.08221 -1.0371 0 -7.97045 -1.02664 0 -7.8542 -1.01503 0 -7.73804 -1.0017 0 -7.62365 -0.984947 0 -7.51607 -0.965466 0 -7.40665 -0.943578 0 -7.29475 -0.92037 0 -7.18783 -0.897374 0 -7.09598 -0.776832 0 -7.06204 -0.615405 0 -7.0301 -0.459291 0 -7.06013 -0.331909 0 -7.09707 -0.211038 0 -7.14912 -0.0920478 0 -7.21375 0.0164033 0 -7.3549 0.09744 0 -7.49855 0.175645 0 -7.64374 0.25199 0 -7.79668 0.330001 0 -7.89987 0.380836 0 -8.00223 0.429921 0 -8.112 0.422918 0 -8.22866 0.403365 0 -8.32149 0.355292 0 -8.41512 0.30728 0 -8.51397 0.259534 0 -8.61324 0.210079 0 -8.69457 0.169153 0 -8.774 0.128256 0 -8.82173 0.0415151 0 -8.85728 -0.0523624 0 -8.88221 -0.149068 0 -8.89392 -0.247661 0 -8.89534 -0.343174 0 -8.8856 -0.437913 0 -8.7769 -0.557391 0 -8.67512 -0.683396 0 -6.16708 -3.72603 0 -6.09722 -3.65417 0 -6.04166 -3.50042 0 -6.02442 -3.34012 0 -6.04094 -3.18081 0 -6.12648 -3.0856 0 -6.20858 -2.99312 0 -6.28654 -2.90369 0 -6.3628 -2.81473 0 -6.43989 -2.72315 0 -6.51745 -2.63086 0 -6.59426 -2.53982 0 -6.67223 -2.44692 0 -6.74681 -2.35654 0 -6.8178 -2.26955 0 -6.89059 -2.18061 0 -6.96317 -2.09644 0 -7.07511 -2.0541 0 -7.21809 -2.1205 0 -7.35644 -2.18841 0 -7.49214 -2.26238 0 -7.62622 -2.34196 0 -7.75629 -2.42958 0 -7.88419 -2.51828 0 -8.01268 -2.60683 0 -8.06199 -2.75064 0 -7.99205 -2.92556 0 -7.92352 -3.10116 0 -7.85637 -3.27523 0 -7.78744 -3.45368 0 -7.72255 -3.63303 0 -7.65893 -3.80947 0 -7.59108 -3.98723 0 -7.51964 -4.05707 0 -7.43869 -4.11788 0 -7.34543 -4.153 0 -7.25267 -4.18646 0 -7.14702 -4.22358 0 -7.04032 -4.25958 0 -6.93696 -4.29244 0 -6.80368 -4.27148 0 -6.72739 -4.22001 0 -6.65545 -4.1648 0 -6.58627 -4.10693 0 -6.51703 -4.04719 0 -6.37313 -3.92109 0 -6.30392 -3.85905 0 -6.23253 -3.7922 0 -9.57579 -0.402696 0 -9.63647 -0.305214 0 -9.71162 -0.227414 0 -9.81999 -0.21532 0 -9.91968 -0.202309 0 -10.0206 -0.190026 0 -10.1265 -0.177734 0 -10.2296 -0.165984 0 -10.3305 -0.154572 0 -10.4368 -0.142349 0 -10.5418 -0.1299 0 -10.6459 -0.118541 0 -10.7533 -0.10652 0 -10.8582 -0.0948003 0 -10.9665 -0.190572 0 -11.0576 -0.305927 0 -11.1285 -0.428288 0 -11.1807 -0.567574 0 -11.2105 -0.695971 0 -11.2132 -0.828822 0 -11.1955 -0.965597 0 -11.153 -1.0999 0 -11.0889 -1.22225 0 -11.0089 -1.33205 0 -10.9403 -1.40053 0 -10.8653 -1.46221 0 -10.7862 -1.51486 0 -10.7008 -1.55788 0 -10.61 -1.58976 0 -10.5158 -1.61088 0 -10.4195 -1.62289 0 -10.3224 -1.62362 0 -10.2282 -1.61766 0 -10.1341 -1.60107 0 -9.97786 -1.51217 0 -9.89863 -1.46874 0 -9.83174 -1.39387 0 -9.79255 -1.24708 0 -9.74963 -1.1038 0 -9.70122 -0.96428 0 -9.64819 -0.818927 0 -9.59177 -0.676191 0 -9.52711 -0.537366 0 -2.64285 2.48235 0 -2.69882 2.38755 0 -2.70386 2.26196 0 -2.64936 2.17415 0 -2.59585 2.08844 0 -2.54329 2.00432 0 -2.49141 1.92094 0 -2.43961 1.83751 0 -2.38776 1.75399 0 -2.33591 1.67126 0 -2.28363 1.58947 0 -2.23032 1.5074 0 -2.17506 1.42539 0 -2.02819 1.4265 0 -1.88441 1.45036 0 -1.74643 1.49745 0 -1.61919 1.56652 0 -1.48913 1.67316 0 -1.38488 1.80405 0 -1.31039 1.95449 0 -1.26805 2.11755 0 -1.25991 2.29283 0 -1.28977 2.46633 0 -1.35547 2.63041 0 -1.45097 2.77669 0 -1.57232 2.9001 0 -1.64206 2.95123 0 -1.71653 2.99435 0 -1.80001 3.03125 0 -1.8876 3.05821 0 -1.97879 3.0741 0 -2.07241 3.07841 0 -2.16584 3.07262 0 -2.25698 3.05725 0 -2.34155 2.94957 0 -2.41855 2.83961 0 -2.49332 2.72504 0 -2.56862 2.60459 0 -4.52245 3.12927 0 -4.63713 3.10965 0 -4.74303 3.08994 0 -4.85068 3.0106 0 -4.88656 2.91809 0 -4.92175 2.8279 0 -4.96331 2.73969 0 -5.00677 2.64625 0 -5.04595 2.55712 0 -5.08436 2.4661 0 -5.12288 2.36777 0 -5.1612 2.26861 0 -5.19661 2.17361 0 -5.1715 2.07081 0 -5.13372 1.96828 0 -5.06386 1.88395 0 -4.98826 1.79794 0 -4.89464 1.69662 0 -4.79532 1.59388 0 -4.69888 1.49614 0 -4.55452 1.43647 0 -4.44643 1.4393 0 -4.33925 1.44617 0 -4.22429 1.45457 0 -4.12046 1.46497 0 -4.0127 1.53646 0 -3.94809 1.64091 0 -3.8844 1.74334 0 -3.82013 1.84603 0 -3.75501 1.9501 0 -3.69023 2.05425 0 -3.62635 2.16011 0 -3.60887 2.2873 0 -3.68921 2.42528 0 -3.77211 2.55802 0 -3.86714 2.7033 0 -3.97371 2.8567 0 -4.0884 3.00977 0 -4.17994 3.11958 0 -4.28107 3.14697 0 -4.35606 3.15906 0 -7.5127 4.08937 0 -7.45548 4.17069 0 -7.45149 4.25984 0 -7.44468 4.34772 0 -7.43843 4.43832 0 -7.43712 4.52783 0 -7.4394 4.61619 0 -7.44412 4.703