<VTKFile type="PolyData" version="0.1" byte_order="LittleEndian">
    <PolyData>
        <Piece NumberOfPoints="2316" NumberOfPolys="53">
            <CellData>
                <DataArray type="Float64" Name="area" format="ascii">
2.77676 1.66998 1.78435 2.29064 2.60653 1.6109 3.05554 1.94688 1.73824 2.68583 1.59293 2.01511 2.80173 1.76154 1.97787 1.62244 2.72301 1.27857 2.609 2.21937 2.27624 1.58783 3.05428 2.86929 2.90847 2.90773 2.57851 2.15636 1.29132 2.73167 2.46329 2.23449 2.35921 1.68275 2.74813 2.08101 2.23028 1.973 2.31351 1.79887 1.42577 2.0743 1.6158 1.50987 1.92312 1.84612 1.39896 1.69136 1.57876 1.67166 1.68677 1.34805 1.16026 
                </DataArray>
                <DataArray type="Float64" Name="c1" format="ascii">
0.0530035 0.0153677 0.0182325 0.0190141 0.0200095 0.0110957 0.0242423 0.036311 0.011679 0.0228533 0.00960924 0.0150069 0.0127648 0.0255085 0.034381 0.0253703 0.0127669 0.0298073 0.0160427 0.0257056 0.00984154 0.0127575 0.0153226 0.0199196 0.0154759 0.0133561 0.04015 0.0396484 0.0137154 0.0173674 0.0186342 0.0216645 0.0149398 0.0361953 0.0270729 0.013683 0.0112379 0.0280913 0.030655 0.0133229 0.0395802 0.0404507 0.0299926 0.0386307 0.0113104 0.0106404 0.0100242 0.0338361 0.0189038 0.0129331 0.020819 0.0148169 0.0391615 
                </DataArray>
                <DataArray type="Float64" Name="c2" format="ascii">
0.514068 0.679832 0.547739 0.661994 0.71928 0.910472 0.48147 0.441798 0.855052 0.533194 0.718817 0.80938 0.578737 0.629701 0.465173 0.482924 0.803571 0.531026 0.64879 0.558206 0.807528 0.698543 0.788661 0.656569 0.617724 0.87238 0.42057 0.477426 0.736751 0.519517 0.727093 0.573309 0.748972 0.555159 0.59602 0.606445 0.797192 0.503453 0.447791 0.90589 0.429481 0.456063 0.485981 0.503762 0.688203 0.646252 0.907741 0.588542 0.61242 0.8707 0.5519 0.734699 0.533557 
                </DataArray>
                <DataArray type="Float64" Name="grad_c1" NumberOfComponents="2" format="ascii">
0.00191899 -0.000278152 0.00160658 0.00177109 0.00142058 0.00299809 0.0025763 -0.00310993 0.00372308 -0.00126505 0.000301364 0.000858359 0.00135265 0.00430847 -0.000425495 -0.00323426 0.00113878 -0.00121489 0.0005516 -0.00453764 0.000431165 0.00116618 0.00181649 0.000350257 0.000915435 0.00201534 0.00656516 0.00136813 -0.000244832 0.00613902 0.000212591 -0.00431491 0.000959164 0.00110238 0.00111035 -0.00801 0.00133112 -0.00233422 0.00387491 0.00505519 0.000432105 0.0010122 0.000964029 0.00156498 0.00203141 -0.00162443 0.00351682 0.00205064 0.00168519 0.00220934 0.000833006 0.000500779 0.00515616 -0.0059774 -0.0065978 -0.00760391 0.00136147 -0.00141721 0.00116138 0.00283453 0.00338771 0.000439504 0.00215555 -0.00459418 0.00174621 0.000998541 0.00981986 0.0075484 0.00543152 -0.00633532 0.00118661 0.00221039 0.000698915 0.00115587 0.00209936 0.0057882 0.000696697 -0.00470846 0.000899701 -9.10235e-05 0.00357495 -0.000808486 -0.00513844 0.00277892 -0.00103013 -0.00578132 0.00259538 0.0120634 0.000739501 0.00139047 0.000619546 0.00150862 0.000192713 0.000863199 0.0120561 -0.0019389 0.00253379 0.00271032 0.00144972 -0.000884448 0.00218734 0.00359325 0.00156485 -0.00198509 0.00163936 -0.0164321 
                </DataArray>
                <DataArray type="Float64" Name="grad_c2" NumberOfComponents="2" format="ascii">
-0.0351421 0.0115367 -0.0688213 0.0003243 -0.0405682 -0.0182868 -0.0721724 0.00958759 -0.0773235 0.0135946 -0.0879238 -0.00994571 -0.0290245 -0.00912991 -0.0173747 0.00538731 -0.0464876 -0.00901152 -0.0310738 0.0193177 -0.0600035 -0.0185743 -0.0711923 0.0150696 -0.0322577 -0.01642 -0.0598241 0.00777508 -0.0259346 -0.00109962 -0.0225662 0.0196226 -0.0786873 -0.00521825 -0.0217781 0.022963 -0.0570821 0.0335332 -0.0459275 0.00296607 -0.0694575 -0.0180516 -0.0713326 -0.0136535 -0.0595925 -0.00268704 -0.0587592 0.00489325 -0.0390258 -0.0123631 -0.091339 -0.00167717 -0.0132404 0.00543139 -0.0295321 0.00972671 -0.0480634 0.0399705 -0.0283269 -0.0215256 -0.0675978 0.0187608 -0.0275038 0.0226865 -0.0663882 -0.00356872 -0.0467785 0.000885409 -0.0533492 0.00152334 -0.0364334 -0.0113437 -0.0716208 -0.013296 -0.0305486 -0.00520722 -0.01584 0.0148218 -0.0707716 -0.00226905 -0.0141209 0.000986096 -0.0220164 0.00221514 -0.0302534 0.0187012 -0.0341516 0.00169719 -0.0603441 -0.0242416 -0.0484699 -0.0168872 -0.0818107 -0.0123627 -0.0531737 0.0122595 -0.0524374 0.00192881 -0.0465782 -0.00190076 -0.0409133 -0.0110556 -0.0639487 0.00951503 -0.0381851 -0.00073355 
                </DataArray>
                <DataArray type="Float64" Name="D1" format="ascii">
20.1884 47.8887 46.4257 29.5543 23.66 26.9155 31.6639 27.4076 30.8932 41.7876 28.6995 27.0936 25.8601 46.5973 31.4408 35.0437 37.913 16.8386 22.4411 28.3868 31.9534 36.3592 34.0147 20.1184 48.0826 38.3651 47.2917 29.8961 38.9749 43.0421 26.8686 32.3324 29.6121 52.4272 42.8323 25.5713 28.1693 45.098 44.1968 28.4491 30.3703 41.505 32.6894 22.6517 35.3618 31.9818 24.0428 32.7424 26.7175 29.508 44.3121 28.2242 27.8128 
                </DataArray>
                <DataArray type="Float64" Name="D2" format="ascii">
28.1376 29.476 55.2662 32.7903 26.1502 20.7843 31.7025 33.9204 29.999 25.2094 41.1061 34.7848 33.2469 38.6467 34.7848 56.3213 22.3241 25.0052 21.7317 17.7694 45.6173 35.0981 35.203 30.2212 14.9015 18.5881 34.7508 28.0313 24.2088 26.0686 28.7328 30.8758 30.5008 53.0714 18.1999 22.0737 37.4859 35.7535 23.7409 30.8278 21.4514 27.9131 23.3293 14.4624 29.8897 37.7594 29.304 28.5592 39.9196 26.3448 27.5206 49.805 30.1134 
                </DataArray>
                <DataArray type="Float64" Name="k1" format="ascii">
0.910378 0.571072 1.14395 1.54432 0.926629 1.25016 0.575564 1.55852 0.945503 0.860941 0.791226 0.616893 1.05281 1.17647 0.817944 0.63907 0.482176 1.56031 0.91796 0.830993 0.79104 0.957837 0.807719 1.03161 1.08356 0.877557 1.01713 0.934678 0.868774 1.64607 0.737187 1.13232 0.856645 1.08628 0.597704 0.754089 0.758816 0.893221 0.690579 1.14494 1.4856 0.921894 1.55448 1.14625 1.25886 1.23837 0.981043 1.37766 1.11592 1.33894 0.934055 1.04397 0.879296 
                </DataArray>
                <DataArray type="Float64" Name="k2" format="ascii">
0.1 0.1 0.1 0.1 0.1 0.1 0.1 0.1 0.1 0.1 0.1 0.1 0.1 0.1 0.1 0.1 0.1 0.1 0.1 0.1 0.1 0.1 0.1 0.1 0.1 0.1 0.1 0.1 0.1 0.1 0.1 0.1 0.1 0.1 0.1 0.1 0.1 0.1 0.1 0.1 0.1 0.1 0.1 0.1 0.1 0.1 0.1 0.1 0.1 0.1 0.1 0.1 0.1 
                </DataArray>
                <DataArray type="Float64" Name="k3" format="ascii">
1 1 1 1 1 1 1 1 1 1 1 1 1 1 1 1 1 1 1 1 1 1 1 1 1 1 1 1 1 1 1 1 1 1 1 1 1 1 1 1 1 1 1 1 1 1 1 1 1 1 1 1 1 
                </DataArray>
                <DataArray type="Int64" Name="cell_type" format="ascii">
0 1 1 1 1 1 1 1 1 1 2 1 1 1 1 1 1 1 1 1 2 1 1 1 1 1 1 1 1 1 1 1 1 1 1 1 1 1 1 1 1 1 1 1 1 1 2 1 1 1 1 1 1 
                </DataArray>
                <DataArray type="Float64" Name="perimeter" format="ascii">
6.18923 4.77261 4.90646 5.7715 5.95892 4.59919 6.50883 5.1188 4.74887 5.93515 4.58001 5.26438 6.06307 4.91654 5.1667 4.65904 6.22006 4.22847 5.89372 5.48471 5.53916 4.68302 6.46869 6.23834 6.37242 6.25146 5.80482 5.45341 4.18793 6.01038 5.8112 5.51058 5.65169 4.71171 6.12616 5.32741 5.5471 5.20271 5.56012 4.91369 4.40403 5.31645 4.68622 4.48886 5.09814 4.95922 4.29345 4.95836 4.61376 4.66756 4.91352 4.27819 4.06211 
                </DataArray>
                <DataArray type="Float64" Name="neighbors" format="ascii">
6 6 5 6 6 3 5 5 2 4 2 3 3 5 4 3 6 5 4 6 3 5 5 6 7 4 3 6 2 3 4 5 4 5 5 5 5 5 4 2 3 5 5 5 6 4 3 5 5 2 6 4 4 
                </DataArray>
            </CellData>
            <Points>
                <DataArray type="Float64" Name="Points" NumberOfComponents="3" format="ascii">
-7.31288 1.78343 0 -7.33051 1.67445 0 -7.34737 1.56727 0 -7.30042 1.41894 0 -7.19462 1.31004 0 -7.08921 1.19655 0 -6.98424 1.07928 0 -6.88275 0.960374 0 -6.74289 0.870923 0 -6.59122 0.804834 0 -6.43985 0.788545 0 -6.2893 0.763864 0 -6.13931 0.731059 0 -5.98821 0.69005 0 -5.83844 0.641517 0 -5.72091 0.673648 0 -5.61018 0.723936 0 -5.54494 0.763498 0 -5.48375 0.808093 0 -5.4434 0.959941 0 -5.39971 1.11101 0 -5.35293 1.26196 0 -5.30186 1.41796 0 -5.24784 1.57664 0 -5.32843 1.65329 0 -5.40804 1.73454 0 -5.48523 1.81835 0 -5.55922 1.904 0 -5.62893 1.99179 0 -5.69413 2.08297 0 -5.78444 2.20828 0 -5.88102 2.32115 0 -6.00466 2.40969 0 -6.14285 2.41114 0 -6.2862 2.41706 0 -6.43024 2.42575 0 -6.57604 2.43749 0 -6.72302 2.45378 0 -6.86687 2.47779 0 -6.98837 2.41424 0 -7.06467 2.36138 0 -7.13788 2.29944 0 -7.20481 2.23004 0 -7.26579 2.15475 0 -7.27803 2.03231 0 -7.29435 1.90632 0 -9.40098 -2.61204 0 -9.34805 -2.54415 0 -9.29163 -2.47251 0 -9.27526 -2.3734 0 -9.26912 -2.28109 0 -9.31928 -2.19411 0 -9.36644 -2.11256 0 -9.40958 -2.02824 0 -9.44206 -1.94196 0 -9.47697 -1.84751 0 -9.50914 -1.75368 0 -9.53931 -1.65542 0 -9.56596 -1.56896 0 -9.62 -1.486 0 -9.68861 -1.40935 0 -9.77439 -1.38015 0 -9.8571 -1.35395 0 -9.98812 -1.31719 0 -10.1298 -1.34997 0 -10.2133 -1.4615 0 -10.2977 -1.575 0 -10.3575 -1.65568 0 -10.42 -1.7351 0 -10.4825 -1.81413 0 -10.5453 -1.89388 0 -10.608 -1.97368 0 -10.6686 -2.05327 0 -10.6805 -2.17727 0 -10.6718 -2.29722 0 -10.643 -2.41686 0 -10.613 -2.53175 0 -10.5804 -2.64981 0 -10.5447 -2.76609 0 -10.4513 -2.84092 0 -10.3488 -2.90476 0 -10.2451 -2.92196 0 -10.141 -2.93846 0 -10.0072 -2.96028 0 -9.86914 -2.98243 0 -9.71552 -2.95815 0 -9.6323 -2.87781 0 -9.55442 -2.79769 0 -9.47384 -2.70365 0 -6.38041 -2.54416 0 -6.46993 -2.51233 0 -6.5718 -2.49194 0 -6.65835 -2.53206 0 -6.74135 -2.57278 0 -6.84042 -2.6196 0 -6.92305 -2.66586 0 -7.00698 -2.71066 0 -7.09857 -2.76329 0 -7.17878 -2.80645 0 -7.25377 -2.8476 0 -7.33681 -2.89568 0 -7.42456 -2.94813 0 -7.50288 -2.99268 0 -7.57866 -3.1063 0 -7.60144 -3.23543 0 -7.6154 -3.35059 0 -7.62716 -3.48697 0 -7.59367 -3.56581 0 -7.54523 -3.6398 0 -7.41697 -3.76726 0 -7.28263 -3.89756 0 -7.14851 -4.02843 0 -6.98213 -4.08467 0 -6.80655 -4.09945 0 -6.64327 -4.07196 0 -6.52138 -3.95093 0 -6.41387 -3.8376 0 -6.31489 -3.72771 0 -6.21499 -3.60132 0 -6.11163 -3.45884 0 -6.01164 -3.31392 0 -5.99339 -3.22094 0 -5.98817 -3.12453 0 -6.06416 -2.98954 0 -6.1199 -2.89261 0 -6.17826 -2.81157 0 -6.2443 -2.71918 0 -6.30861 -2.6323 0 -9.42252 3.35265 0 -9.31238 3.2926 0 -9.19559 3.31354 0 -9.07719 3.35945 0 -8.98114 3.46196 0 -8.88416 3.56074 0 -8.78498 3.65793 0 -8.6831 3.75499 0 -8.57808 3.85175 0 -8.46981 3.94785 0 -8.35934 4.04288 0 -8.24887 4.13643 0 -8.13994 4.22777 0 -8.03385 4.3153 0 -7.99368 4.44812 0 -7.97501 4.58822 0 -8.01566 4.71887 0 -8.08851 4.80495 0 -8.16521 4.88298 0 -8.26136 4.92264 0 -8.35975 4.96122 0 -8.45805 4.9995 0 -8.55517 5.03795 0 -8.64905 5.07534 0 -8.74344 5.10947 0 -8.83486 5.14184 0 -8.92438 5.17243 0 -9.08347 5.14815 0 -9.18926 5.03555 0 -9.3077 4.9378 0 -9.43124 4.83859 0 -9.55532 4.74548 0 -9.68243 4.66691 0 -9.81355 4.5949 0 -9.8941 4.49029 0 -9.87353 4.37154 0 -9.84248 4.20588 0 -9.80821 4.02614 0 -9.77859 3.84322 0 -9.74114 3.67258 0 -9.72454 3.59831 0 -9.70932 3.52253 0 -9.60501 3.45895 0 -9.50785 3.40318 0 -10.9694 2.41501 0 -10.9402 2.30921 0 -10.8989 2.20567 0 -10.8462 2.10451 0 -10.7324 2.08246 0 -10.6176 2.05699 0 -10.5019 2.02985 0 -10.3859 1.9995 0 -10.271 1.96635 0 -10.156 1.93022 0 -10.041 1.89167 0 -9.92776 1.85115 0 -9.81719 1.80735 0 -9.70721 1.76133 0 -9.57594 1.7706 0 -9.45225 1.80436 0 -9.33736 1.88103 0 -9.251 1.93574 0 -9.16526 1.9876 0 -9.09707 2.07268 0 -9.03958 2.16429 0 -8.98915 2.2633 0 -8.95689 2.36849 0 -8.92527 2.47045 0 -8.89605 2.57385 0 -8.97576 2.72008 0 -9.04873 2.86713 0 -9.11681 3.01552 0 -9.2107 3.1503 0 -9.31019 3.27722 0 -9.42823 3.34407 0 -9.57582 3.42824 0 -9.70422 3.50678 0 -9.80201 3.47511 0 -9.88197 3.44825 0 -9.96938 3.42341 0 -10.0586 3.39609 0 -10.1498 3.36516 0 -10.2427 3.33014 0 -10.3386 3.29142 0 -10.4336 3.25528 0 -10.5257 3.22235 0 -10.6151 3.18903 0 -10.6978 3.15037 0 -10.778 3.11345 0 -10.8382 3.04836 0 -10.8896 2.97809 0 -10.9364 2.8897 0 -10.9678 2.79027 0 -10.9853 2.68494 0 -10.99 2.58087 0 -10.9839 2.49862 0 -13.5117 -3.76346 0 -13.448 -3.84489 0 -13.3709 -3.91866 0 -13.285 -3.98187 0 -13.194 -4.03296 0 -13.102 -4.014 0 -13.0093 -3.99552 0 -12.9165 -3.97858 0 -12.8241 -3.96248 0 -12.7292 -3.94707 0 -12.6346 -3.93259 0 -12.5405 -3.91884 0 -12.4458 -3.90443 0 -12.3669 -3.8099 0 -12.3318 -3.7188 0 -12.295 -3.63046 0 -12.2565 -3.54172 0 -12.2006 -3.41834 0 -12.1993 -3.2508 0 -12.2894 -3.12208 0 -12.3803 -2.99298 0 -12.4567 -2.88591 0 -12.5339 -2.78033 0 -12.6139 -2.67548 0 -12.6964 -2.56899 0 -12.8146 -2.54972 0 -12.9378 -2.55016 0 -13.0587 -2.56964 0 -13.1738 -2.60884 0 -13.283 -2.66613 0 -13.3797 -2.73945 0 -13.4655 -2.8291 0 -13.5379 -2.93088 0 -13.5923 -3.04177 0 -13.6288 -3.16215 0 -13.6442 -3.28371 0 -13.6411 -3.40699 0 -13.6198 -3.52749 0 -13.5795 -3.64082 0 -5.08939 -1.24774 0 -5.21314 -1.23685 0 -5.325 -1.29967 0 -5.43049 -1.37687 0 -5.51267 -1.48078 0 -5.60267 -1.57927 0 -5.69672 -1.67601 0 -5.79275 -1.77254 0 -5.89836 -1.85872 0 -6.00846 -1.94052 0 -6.11509 -2.01748 0 -6.22535 -2.08462 0 -6.3367 -2.14053 0 -6.45327 -2.19157 0 -6.4251 -2.36451 0 -6.37089 -2.53779 0 -6.26831 -2.66762 0 -6.19413 -2.77233 0 -6.11345 -2.88391 0 -6.0432 -3.00627 0 -5.97797 -3.11868 0 -5.86789 -3.19557 0 -5.77243 -3.20442 0 -5.6819 -3.21114 0 -5.58792 -3.21896 0 -5.493 -3.22766 0 -5.39726 -3.23825 0 -5.30033 -3.24965 0 -5.20436 -3.26107 0 -5.10529 -3.27146 0 -5.00238 -3.23238 0 -4.90528 -3.18355 0 -4.81359 -3.12447 0 -4.72673 -3.05535 0 -4.64734 -2.97927 0 -4.57757 -2.90126 0 -4.51559 -2.8229 0 -4.45945 -2.74302 0 -4.40983 -2.65992 0 -4.36833 -2.57224 0 -4.33529 -2.47954 0 -4.31066 -2.38254 0 -4.2947 -2.28296 0 -4.28744 -2.18251 0 -4.28886 -2.08219 0 -4.2991 -1.9829 0 -4.31878 -1.88597 0 -4.34821 -1.79234 0 -4.38702 -1.70196 0 -4.43469 -1.61451 0 -4.52767 -1.48393 0 -4.64103 -1.36826 0 -4.77429 -1.2721 0 -4.93327 -1.26052 0 -3.91455 1.23093 0 -3.84215 1.17748 0 -3.76847 1.12554 0 -3.68865 1.16722 0 -3.60929 1.20976 0 -3.53055 1.2536 0 -3.45198 1.29856 0 -3.37437 1.34554 0 -3.2973 1.39402 0 -3.22019 1.44348 0 -3.14375 1.49414 0 -3.06775 1.54581 0 -2.99162 1.59882 0 -2.91701 1.65294 0 -2.8648 1.76184 0 -2.83272 1.87712 0 -2.84448 1.99145 0 -2.85957 2.13862 0 -2.87755 2.28687 0 -2.90132 2.43495 0 -3.00205 2.57421 0 -3.12768 2.63599 0 -3.29007 2.71105 0 -3.45327 2.77781 0 -3.53546 2.80692 0 -3.61822 2.83573 0 -3.7016 2.8616 0 -3.78566 2.88507 0 -3.88718 2.83674 0 -3.98238 2.77391 0 -4.0696 2.69809 0 -4.14812 2.61105 0 -4.18272 2.51304 0 -4.21761 2.41398 0 -4.26078 2.28952 0 -4.30467 2.16421 0 -4.34757 2.04002 0 -4.39018 1.91629 0 -4.43121 1.79422 0 -4.41128 1.65909 0 -4.34092 1.58931 0 -4.27046 1.52296 0 -4.20065 1.45852 0 -4.12749 1.39817 0 -4.02218 1.31375 0 -12.9087 5.04975 0 -12.9 4.89835 0 -12.8526 4.76307 0 -12.7966 4.62108 0 -12.712 4.49798 0 -12.6051 4.48236 0 -12.509 4.47046 0 -12.421 4.45783 0 -12.3359 4.44492 0 -12.2448 4.43466 0 -12.1604 4.42748 0 -12.0788 4.41689 0 -11.9907 4.4039 0 -11.9101 4.3953 0 -11.8183 4.43628 0 -11.7365 4.51022 0 -11.6802 4.59715 0 -11.6067 4.72229 0 -11.5368 4.84139 0 -11.4714 4.95038 0 -11.4075 5.04865 0 -11.397 5.12138 0 -11.3979 5.19433 0 -11.4066 5.27036 0 -11.4209 5.3461 0 -11.4418 5.41987 0 -11.4709 5.49653 0 -11.5313 5.58708 0 -11.6064 5.66919 0 -11.6899 5.72911 0 -11.7719 5.77241 0 -11.8975 5.81802 0 -12.0365 5.85255 0 -12.1893 5.85584 0 -12.345 5.82188 0 -12.4737 5.76833 0 -12.5997 5.70319 0 -12.7207 5.60608 0 -12.8083 5.48702 0 -12.867 5.35416 0 -12.9018 5.2028 0 -5.87936 5.87884 0 -6.01029 5.80064 0 -6.12931 5.70387 0 -6.23363 5.5909 0 -6.32106 5.46461 0 -6.30996 5.35393 0 -6.29805 5.24413 0 -6.28625 5.13561 0 -6.27458 5.02724 0 -6.26285 4.91862 0 -6.25124 4.81093 0 -6.23973 4.70503 0 -6.22826 4.60074 0 -6.21463 4.49865 0 -6.09992 4.41057 0 -5.96949 4.3549 0 -5.84096 4.29908 0 -5.7481 4.2585 0 -5.65601 4.21273 0 -5.56319 4.16667 0 -5.46991 4.11994 0 -5.34658 4.12805 0 -5.25104 4.17514 0 -5.15418 4.2231 0 -5.05549 4.27053 0 -4.95346 4.31368 0 -4.84941 4.35411 0 -4.74346 4.3917 0 -4.65871 4.46733 0 -4.61315 4.63242 0 -4.58546 4.73124 0 -4.55665 4.83014 0 -4.52599 4.92869 0 -4.49375 5.02617 0 -4.45978 5.12369 0 -4.42567 5.22184 0 -4.46741 5.34604 0 -4.52452 5.46361 0 -4.57606 5.54651 0 -4.63551 5.62411 0 -4.77452 5.76156 0 -4.93755 5.87007 0 -5.1185 5.94469 0 -5.31 5.98297 0 -5.50477 5.98459 0 -5.69678 5.94999 0 -9.07121 -6.91408 0 -8.97884 -6.84214 0 -8.90104 -6.75657 0 -8.83657 -6.65962 0 -8.85352 -6.57445 0 -8.87349 -6.48672 0 -8.89271 -6.40065 0 -8.91321 -6.31282 0 -8.93496 -6.2247 0 -8.95705 -6.13869 0 -8.98011 -6.05267 0 -9.00398 -5.96802 0 -9.02836 -5.88477 0 -9.05338 -5.80001 0 -9.07992 -5.71443 0 -9.14195 -5.6548 0 -9.21505 -5.60548 0 -9.32775 -5.61232 0 -9.43903 -5.62395 0 -9.54974 -5.63821 0 -9.66183 -5.65391 0 -9.77257 -5.67084 0 -9.88636 -5.69091 0 -10.0008 -5.71433 0 -10.1108 -5.82792 0 -10.1943 -5.96302 0 -10.246 -6.11189 0 -10.2635 -6.22844 0 -10.2619 -6.34683 0 -10.2412 -6.46445 0 -10.2017 -6.57753 0 -10.1439 -6.68155 0 -10.0718 -6.77553 0 -10.0171 -6.83131 0 -9.95627 -6.88201 0 -9.81961 -6.96348 0 -9.67035 -7.01746 0 -9.51418 -7.0374 0 -9.35734 -7.02545 0 -9.20736 -6.98479 0 -11.6552 1.7264 0 -11.7586 1.72923 0 -11.9325 1.71383 0 -12.1021 1.66664 0 -12.2614 1.58665 0 -12.2961 1.4901 0 -12.3264 1.39219 0 -12.3549 1.29404 0 -12.3818 1.19557 0 -12.4069 1.09783 0 -12.4304 0.99991 0 -12.4522 0.902141 0 -12.4725 0.804495 0 -12.4918 0.706611 0 -12.5104 0.609367 0 -12.5267 0.512026 0 -12.4776 0.407318 0 -12.3977 0.353852 0 -12.2821 0.28014 0 -12.1638 0.209812 0 -12.045 0.144219 0 -11.925 0.0829292 0 -11.8018 0.0251672 0 -11.676 -0.0291012 0 -11.5738 -0.0233603 0 -11.4733 -0.00521682 0 -11.3766 0.02608 0 -11.2842 0.0668075 0 -11.1984 0.118936 0 -11.1207 0.183347 0 -11.0337 0.279722 0 -10.9645 0.388274 0 -10.9929 0.493943 0 -11.0222 0.597844 0 -11.0509 0.702923 0 -11.0806 0.808425 0 -11.116 0.928049 0 -11.153 1.04928 0 -11.1909 1.17038 0 -11.2301 1.29124 0 -11.2715 1.41198 0 -11.314 1.53099 0 -11.3612 1.64764 0 -11.4553 1.68348 0 -11.5535 1.71028 0 -5.79087 -5.55066 0 -5.77626 -5.40757 0 -5.78134 -5.2639 0 -5.8061 -5.12222 0 -5.89679 -5.04946 0 -5.98823 -4.9797 0 -6.07893 -4.91111 0 -6.16712 -4.84269 0 -6.25186 -4.77462 0 -6.33528 -4.70625 0 -6.41969 -4.63789 0 -6.5043 -4.57052 0 -6.59075 -4.50533 0 -6.72189 -4.49462 0 -6.85521 -4.49755 0 -6.99149 -4.51895 0 -7.1278 -4.55633 0 -7.19741 -4.63615 0 -7.26825 -4.71754 0 -7.33938 -4.79201 0 -7.40693 -4.86224 0 -7.47478 -4.93446 0 -7.54176 -5.00641 0 -7.60933 -5.07667 0 -7.67738 -5.15162 0 -7.74591 -5.22284 0 -7.81271 -5.29458 0 -7.82563 -5.40326 0 -7.77522 -5.51253 0 -7.72709 -5.62019 0 -7.68121 -5.72341 0 -7.63781 -5.82918 0 -7.59219 -5.93444 0 -7.56257 -6.02259 0 -7.49096 -6.09733 0 -7.41169 -6.16692 0 -7.32509 -6.2291 0 -7.23336 -6.27962 0 -7.13679 -6.32107 0 -7.03517 -6.35252 0 -6.93137 -6.3743 0 -6.82638 -6.38461 0 -6.72174 -6.38393 0 -6.61821 -6.37231 0 -6.51656 -6.35164 0 -6.35805 -6.29546 0 -6.21288 -6.21657 0 -6.08629 -6.11611 0 -5.97838 -5.99286 0 -5.89151 -5.85604 0 -5.82936 -5.70762 0 -8.2481 0.943833 0 -8.2226 1.04899 0 -8.24493 1.15326 0 -8.28282 1.25444 0 -8.35377 1.33173 0 -8.42354 1.40393 0 -8.49452 1.47706 0 -8.56364 1.54805 0 -8.63318 1.61951 0 -8.70347 1.69158 0 -8.77271 1.76352 0 -8.83974 1.83632 0 -8.90581 1.90811 0 -8.97142 1.97875 0 -9.06762 1.98552 0 -9.16239 1.97672 0 -9.24603 1.92712 0 -9.35173 1.85956 0 -9.45345 1.79161 0 -9.53264 1.66451 0 -9.58311 1.52239 0 -9.58638 1.35441 0 -9.59029 1.18663 0 -9.59663 1.01713 0 -9.60299 0.848854 0 -9.61143 0.677517 0 -9.51953 0.547502 0 -9.39958 0.489915 0 -9.27676 0.43484 0 -9.1379 0.376523 0 -8.99633 0.323367 0 -8.88478 0.282217 0 -8.77402 0.242075 0 -8.64471 0.284915 0 -8.52795 0.353812 0 -8.42652 0.446234 0 -8.34392 0.554359 0 -8.3114 0.685907 0 -8.27976 0.815574 0 -4.18808 -0.285362 0 -4.21455 -0.168883 0 -4.2558 -0.0554865 0 -4.31002 0.051852 0 -4.40788 0.0865225 0 -4.50589 0.123147 0 -4.60471 0.160148 0 -4.70533 0.197972 0 -4.80386 0.235615 0 -4.90291 0.272898 0 -5.00204 0.31104 0 -5.10059 0.34877 0 -5.19827 0.387124 0 -5.29533 0.426383 0 -5.40138 0.396801 0 -5.50153 0.354559 0 -5.59723 0.303166 0 -5.61183 0.220404 0 -5.64207 0.0616119 0 -5.68111 -0.0976919 0 -5.72731 -0.253817 0 -5.78035 -0.406469 0 -5.76032 -0.497966 0 -5.70854 -0.571268 0 -5.65512 -0.644588 0 -5.60747 -0.721396 0 -5.55397 -0.807844 0 -5.5022 -0.898719 0 -5.4496 -0.990848 0 -5.3962 -1.08446 0 -5.31092 -1.15952 0 -5.21898 -1.22524 0 -5.12762 -1.2344 0 -5.03754 -1.24209 0 -4.94613 -1.24948 0 -4.85701 -1.25606 0 -4.7696 -1.26128 0 -4.67794 -1.21968 0 -4.59356 -1.17173 0 -4.51633 -1.11673 0 -4.4466 -1.05408 0 -4.38351 -0.985338 0 -4.32782 -0.911683 0 -4.28104 -0.832139 0 -4.23284 -0.726577 0 -4.19904 -0.616266 0 -4.18164 -0.507353 0 -4.17715 -0.396945 0 -4.07911 3.98523 0 -3.98762 3.90773 0 -3.8815 3.88281 0 -3.80824 3.92353 0 -3.73578 3.96665 0 -3.66361 4.01039 0 -3.59142 4.05516 0 -3.5189 4.10158 0 -3.44756 4.14989 0 -3.37687 4.19927 0 -3.30688 4.24924 0 -3.23681 4.30019 0 -3.16683 4.35197 0 -3.09792 4.40682 0 -3.08953 4.53373 0 -3.1009 4.66056 0 -3.1312 4.78422 0 -3.20178 4.94272 0 -3.30374 5.0834 0 -3.43282 5.19973 0 -3.5832 5.2874 0 -3.74879 5.34326 0 -3.92198 5.36435 0 -4.0961 5.34961 0 -4.26312 5.29935 0 -4.41536 5.21542 0 -4.44959 5.12264 0 -4.48194 5.02989 0 -4.51284 4.93685 0 -4.54213 4.84342 0 -4.56969 4.7499 0 -4.5961 4.65647 0 -4.62194 4.56321 0 -4.64613 4.4701 0 -4.6014 4.37644 0 -4.51178 4.31492 0 -4.42357 4.25178 0 -4.33619 4.1876 0 -4.24942 4.12185 0 -4.16346 4.05463 0 -10.6291 -2.50968 0 -10.6529 -2.41854 0 -10.6821 -2.29728 0 -10.7425 -2.18408 0 -10.8213 -2.08329 0 -10.9451 -2.03976 0 -11.0674 -1.99377 0 -11.1864 -1.94561 0 -11.3038 -1.89696 0 -11.4202 -1.84514 0 -11.5374 -1.78929 0 -11.6554 -1.72862 0 -11.7715 -1.66551 0 -11.8853 -1.60131 0 -11.9987 -1.53432 0 -12.1452 -1.52333 0 -12.2854 -1.59112 0 -12.4274 -1.65899 0 -12.5026 -1.75653 0 -12.5668 -1.86115 0 -12.6187 -1.97156 0 -12.6582 -2.08632 0 -12.6853 -2.20345 0 -12.7006 -2.3213 0 -12.7032 -2.4395 0 -12.6899 -2.55958 0 -12.595 -2.68393 0 -12.5243 -2.77655 0 -12.4557 -2.87024 0 -12.3878 -2.96508 0 -12.3207 -3.06025 0 -12.2544 -3.15472 0 -12.1875 -3.24774 0 -12.0497 -3.29544 0 -11.898 -3.26858 0 -11.7437 -3.24535 0 -11.5885 -3.22685 0 -11.4333 -3.21106 0 -11.2803 -3.19858 0 -11.1292 -3.19036 0 -10.977 -3.19055 0 -10.8234 -3.19237 0 -10.7307 -3.10108 0 -10.6394 -3.01019 0 -10.5904 -2.89707 0 -10.5552 -2.77422 0 -10.6056 -2.59747 0 -6.83065 4.00018 0 -6.82985 3.87034 0 -6.79835 3.75717 0 -6.77824 3.65231 0 -6.72564 3.61444 0 -6.66242 3.58189 0 -6.57796 3.52864 0 -6.48207 3.48247 0 -6.38216 3.42848 0 -6.27684 3.37079 0 -6.16828 3.30486 0 -6.06153 3.26261 0 -6.00457 3.19773 0 -5.92884 3.15259 0 -5.82708 3.1689 0 -5.72299 3.18966 0 -5.62222 3.22359 0 -5.51055 3.26607 0 -5.42591 3.37587 0 -5.41834 3.48549 0 -5.41216 3.5952 0 -5.41342 3.7152 0 -5.41661 3.84654 0 -5.4191 3.98328 0 -5.47725 4.11065 0 -5.58676 4.16734 0 -5.75604 4.25118 0 -5.92835 4.32631 0 -6.10551 4.40192 0 -6.29937 4.40939 0 -6.45768 4.32051 0 -6.57166 4.23731 0 -6.64121 4.17228 0 -6.74324 4.07898 0 -8.27673 6.77654 0 -8.35823 6.77208 0 -8.48214 6.75251 0 -8.61134 6.72309 0 -8.75375 6.68525 0 -8.89592 6.62917 0 -8.9087 6.49147 0 -8.94076 6.34673 0 -8.97413 6.22748 0 -9.0087 6.08782 0 -9.05219 5.95928 0 -9.0871 5.84867 0 -9.13169 5.73995 0 -9.17157 5.63575 0 -9.12682 5.47126 0 -9.06177 5.31364 0 -8.93033 5.18493 0 -8.80697 5.14284 0 -8.65093 5.08678 0 -8.49044 5.0229 0 -8.31838 4.95575 0 -8.16027 4.89349 0 -8.06149 4.91227 0 -7.9613 4.93278 0 -7.83599 5.05616 0 -7.76037 5.1331 0 -7.6886 5.20989 0 -7.62008 5.28707 0 -7.5536 5.36271 0 -7.4892 5.43901 0 -7.42608 5.51581 0 -7.3637 5.5928 0 -7.30204 5.67121 0 -7.2927 5.79928 0 -7.29727 5.92786 0 -7.31889 6.05486 0 -7.35814 6.17768 0 -7.41393 6.29341 0 -7.48574 6.39967 0 -7.57153 6.49445 0 -7.66793 6.57594 0 -7.74988 6.63002 0 -7.83544 6.67521 0 -7.9237 6.71194 0 -8.01397 6.7405 0 -8.10417 6.76107 0 -8.19212 6.77319 0 -7.10525 -1.564 0 -7.00698 -1.4006 0 -6.96523 -1.21416 0 -6.92089 -1.03656 0 -6.87474 -0.864663 0 -6.83256 -0.699711 0 -6.793 -0.544251 0 -6.84461 -0.425421 0 -6.94341 -0.31848 0 -7.04291 -0.210056 0 -7.16168 -0.128796 0 -7.29872 -0.0676543 0 -7.44288 -0.054282 0 -7.58853 -0.0403576 0 -7.73523 -0.0256253 0 -7.8799 -0.00989169 0 -8.02488 0.00645639 0 -8.13322 -0.0408747 0 -8.23367 -0.103679 0 -8.32693 -0.179488 0 -8.40721 -0.265885 0 -8.47471 -0.362994 0 -8.49951 -0.468432 0 -8.52282 -0.57621 0 -8.54607 -0.684461 0 -8.58242 -0.8624 0 -8.52297 -0.931691 0 -8.46339 -0.999366 0 -8.40641 -1.06865 0 -8.34847 -1.14012 0 -8.29428 -1.21354 0 -8.2415 -1.29125 0 -8.18797 -1.37228 0 -8.13534 -1.4535 0 -8.0854 -1.53156 0 -8.03789 -1.61065 0 -7.92568 -1.60663 0 -7.81096 -1.60042 0 -7.69273 -1.59374 0 -7.57593 -1.58728 0 -7.46392 -1.58128 0 -7.35076 -1.57726 0 -7.22852 -1.57178 0 -10.3756 -5.16727 0 -10.3934 -5.06016 0 -10.4149 -4.93878 0 -10.4383 -4.82001 0 -10.5608 -4.71018 0 -10.6969 -4.62206 0 -10.8216 -4.64525 0 -10.9455 -4.6671 0 -11.0686 -4.68684 0 -11.1935 -4.6999 0 -11.3198 -4.70926 0 -11.4478 -4.7157 0 -11.5748 -4.71714 0 -11.7027 -4.7158 0 -11.831 -4.71289 0 -11.9402 -4.74659 0 -12.0414 -4.80347 0 -12.0949 -4.91502 0 -12.1643 -5.06032 0 -12.2373 -5.20483 0 -12.2312 -5.30709 0 -12.2137 -5.40764 0 -12.1845 -5.50479 0 -12.1441 -5.59852 0 -12.0934 -5.68812 0 -12.0334 -5.77217 0 -11.9676 -5.84558 0 -11.8949 -5.91103 0 -11.815 -5.96853 0 -11.7275 -6.01936 0 -11.6347 -6.06323 0 -11.5391 -6.09878 0 -11.3945 -6.13259 0 -11.2442 -6.14214 0 -11.0951 -6.12939 0 -10.9485 -6.09517 0 -10.8069 -6.03916 0 -10.6771 -5.96288 0 -10.5623 -5.86561 0 -10.4635 -5.75262 0 -10.3843 -5.62794 0 -10.3256 -5.48814 0 -10.3412 -5.37988 0 -10.3577 -5.27416 0 -10.4375 -4.35477 0 -10.3569 -4.40214 0 -10.2712 -4.43804 0 -10.1816 -4.46289 0 -10.1038 -4.44086 0 -10.0281 -4.41667 0 -9.95199 -4.39116 0 -9.87594 -4.36447 0 -9.80269 -4.33751 0 -9.72968 -4.30749 0 -9.6557 -4.27465 0 -9.58037 -4.23852 0 -9.50699 -4.20048 0 -9.43534 -4.15849 0 -9.39721 -4.06502 0 -9.41661 -3.97874 0 -9.4554 -3.81843 0 -9.49923 -3.66231 0 -9.5468 -3.50526 0 -9.58915 -3.39315 0 -9.63456 -3.2867 0 -9.68254 -3.17981 0 -9.73517 -3.0709 0 -9.87664 -2.99135 0 -10.0495 -2.96356 0 -10.1969 -2.9397 0 -10.346 -2.91587 0 -10.4903 -2.94971 0 -10.6273 -3.01222 0 -10.7212 -3.10561 0 -10.8141 -3.19872 0 -10.7924 -3.30057 0 -10.7698 -3.40297 0 -10.7465 -3.50454 0 -10.7234 -3.60453 0 -10.6998 -3.70328 0 -10.6749 -3.80413 0 -10.6486 -3.90582 0 -10.6218 -4.00571 0 -10.5936 -4.10614 0 -10.5515 -4.25609 0 -10.6559 5.05954 0 -10.7577 5.10358 0 -10.8338 5.12028 0 -10.9151 5.13736 0 -11.0956 5.14497 0 -11.2624 5.11491 0 -11.4003 5.04019 0 -11.447 4.96974 0 -11.494 4.89368 0 -11.5855 4.73891 0 -11.6794 4.57855 0 -11.7274 4.49269 0 -11.7611 4.39459 0 -11.7765 4.30412 0 -11.7667 4.21304 0 -11.737 4.11651 0 -11.7227 4.01852 0 -11.6744 3.84358 0 -11.637 3.68304 0 -11.6038 3.5258 0 -11.5097 3.3886 0 -11.3903 3.26837 0 -11.2495 3.17779 0 -11.1223 3.13447 0 -10.9911 3.11455 0 -10.8587 3.11745 0 -10.7335 3.14437 0 -10.6207 3.19758 0 -10.5086 3.23925 0 -10.3984 3.27917 0 -10.2935 3.32107 0 -10.1892 3.36227 0 -10.082 3.39903 0 -9.90313 3.45272 0 -9.80737 3.48507 0 -9.71928 3.5137 0 -9.75722 3.70386 0 -9.7782 3.79619 0 -9.79619 3.87944 0 -9.80855 3.96331 0 -9.82188 4.04486 0 -9.83574 4.11676 0 -9.84848 4.18303 0 -9.86177 4.25331 0 -9.87603 4.32907 0 -9.89049 4.41004 0 -9.90639 4.49425 0 -9.98552 4.57602 0 -10.0822 4.62353 0 -10.1657 4.66806 0 -10.2445 4.71463 0 -10.3267 4.78217 0 -10.4113 4.86343 0 -10.4865 4.93544 0 -10.5621 5.01135 0 -10.2999 -0.852422 0 -10.2512 -0.942753 0 -10.1834 -1.07202 0 -10.1154 -1.20757 0 -10.0539 -1.25782 0 -9.9881 -1.30601 0 -9.83633 -1.34963 0 -9.687 -1.39811 0 -9.53119 -1.37398 0 -9.41309 -1.28162 0 -9.28435 -1.19005 0 -9.15097 -1.10013 0 -9.01476 -1.03167 0 -8.88231 -0.972202 0 -8.7451 -0.917505 0 -8.59439 -0.86383 0 -8.55893 -0.697118 0 -8.54126 -0.614608 0 -8.52351 -0.531943 0 -8.5053 -0.44851 0 -8.4863 -0.363311 0 -8.50869 -0.257596 0 -8.54253 -0.151424 0 -8.58543 -0.0473278 0 -8.6422 0.0512237 0 -8.70459 0.14507 0 -8.77517 0.230216 0 -8.8628 0.263606 0 -8.95011 0.295572 0 -9.03956 0.328916 0 -9.12717 0.36134 0 -9.21136 0.396531 0 -9.29626 0.432328 0 -9.40772 0.482721 0 -9.51962 0.535415 0 -9.64422 0.526338 0 -9.76772 0.500604 0 -9.87801 0.44412 0 -9.98803 0.389967 0 -10.1012 0.336725 0 -10.2143 0.286288 0 -10.3129 0.244183 0 -10.412 0.203541 0 -10.4749 0.113456 0 -10.5247 0.0190871 0 -10.5616 -0.0814013 0 -10.5846 -0.188592 0 -10.5931 -0.295793 0 -10.5914 -0.399214 0 -10.5302 -0.490034 0 -10.4671 -0.582093 0 -10.4064 -0.671657 0 -10.352 -0.761288 0 -9.29861 -4.16273 0 -9.22504 -4.19522 0 -9.14999 -4.22831 0 -8.99892 -4.29175 0 -8.85136 -4.26581 0 -8.74948 -4.19179 0 -8.65658 -4.12235 0 -8.56017 -4.05669 0 -8.46118 -3.98668 0 -8.36067 -3.91851 0 -8.25865 -3.85451 0 -8.15367 -3.79679 0 -8.04868 -3.74738 0 -7.94467 -3.69683 0 -7.84271 -3.64242 0 -7.74225 -3.59117 0 -7.63827 -3.48967 0 -7.62446 -3.34325 0 -7.61379 -3.25285 0 -7.60023 -3.15753 0 -7.63855 -3.05867 0 -7.68277 -2.95091 0 -7.73989 -2.88924 0 -7.78928 -2.82804 0 -7.88576 -2.69724 0 -7.9815 -2.56845 0 -8.08775 -2.437 0 -8.19564 -2.30305 0 -8.34521 -2.25739 0 -8.45656 -2.28215 0 -8.57427 -2.30405 0 -8.6911 -2.32144 0 -8.82071 -2.34043 0 -8.94774 -2.35591 0 -9.06898 -2.3676 0 -9.17448 -2.41907 0 -9.28087 -2.47627 0 -9.35562 -2.56998 0 -9.4232 -2.65629 0 -9.4915 -2.74144 0 -9.55401 -2.81209 0 -9.62879 -2.88842 0 -9.70423 -2.96237 0 -9.7217 -3.07389 0 -9.67142 -3.18007 0 -9.62402 -3.28593 0 -9.57968 -3.39 0 -9.53882 -3.49761 0 -9.50437 -3.60952 0 -9.47146 -3.72257 0 -9.4402 -3.83672 0 -9.41338 -3.94976 0 -9.38561 -4.06419 0 -11.5781 -0.2417 0 -11.6243 -0.133596 0 -11.6872 -0.0348391 0 -11.8257 0.0246627 0 -11.9613 0.0894976 0 -12.0941 0.158721 0 -12.2245 0.233051 0 -12.3527 0.312238 0 -12.4788 0.395852 0 -12.6253 0.417629 0 -12.7729 0.373412 0 -12.9216 0.331142 0 -13.0704 0.292203 0 -13.2196 0.257036 0 -13.3238 0.134341 0 -13.4102 -0.00103887 0 -13.4755 -0.147864 0 -13.5182 -0.311419 0 -13.5348 -0.457851 0 -13.5