<VTKFile type="PolyData" version="0.1" byte_order="LittleEndian">
    <PolyData>
        <Piece NumberOfPoints="40" NumberOfPolys="1">
            <CellData>
                <DataArray type="Float64" Name="area" format="ascii">
3.3307 
                </DataArray>
                <DataArray type="Float64" Name="c1" format="ascii">
0.0371662 
                </DataArray>
                <DataArray type="Float64" Name="c2" format="ascii">
0.000684925 
                </DataArray>
                <DataArray type="Float64" Name="grad_c1" NumberOfComponents="2" format="ascii">
-1.0024e-05 -6.79291e-06 
                </DataArray>
                <DataArray type="Float64" Name="grad_c2" NumberOfComponents="2" format="ascii">
-0.000582914 -1.7891e-07 
                </DataArray>
                <DataArray type="Float64" Name="D1" format="ascii">
20.1884 
                </DataArray>
                <DataArray type="Float64" Name="D2" format="ascii">
28.1376 
                </DataArray>
                <DataArray type="Float64" Name="k1" format="ascii">
0.910378 
                </DataArray>
                <DataArray type="Float64" Name="k2" format="ascii">
0.1 
                </DataArray>
                <DataArray type="Float64" Name="k3" format="ascii">
1 
                </DataArray>
                <DataArray type="Int64" Name="cell_type" format="ascii">
0 
                </DataArray>
                <DataArray type="Float64" Name="perimeter" format="ascii">
6.47619 
                </DataArray>
                <DataArray type="Float64" Name="neighbors" format="ascii">
0 
                </DataArray>
            </CellData>
            <Points>
                <DataArray type="Float64" Name="Points" NumberOfComponents="3" format="ascii">
1.0315 -8.73936e-08 0 1.0188 0.161406 0 0.981005 0.318837 0 0.919047 0.468417 0 0.834452 0.606464 0 0.729303 0.729577 0 0.60619 0.834726 0 0.468143 0.919321 0 0.318563 0.981279 0 0.161132 1.01907 0 -0.000273935 1.03178 0 -0.16168 1.01907 0 -0.319111 0.981279 0 -0.468691 0.919321 0 -0.606738 0.834726 0 -0.729851 0.729577 0 -0.835 0.606464 0 -0.919595 0.468417 0 -0.981553 0.318837 0 -1.01935 0.161406 0 -1.03205 -8.73936e-08 0 -1.01935 -0.161406 0 -0.981553 -0.318837 0 -0.919595 -0.468417 0 -0.835 -0.606464 0 -0.729851 -0.729577 0 -0.606738 -0.834726 0 -0.468691 -0.919321 0 -0.319111 -0.981279 0 -0.16168 -1.01908 0 -0.000273935 -1.03178 0 0.161132 -1.01908 0 0.318563 -0.981279 0 0.468143 -0.919321 0 0.60619 -0.834726 0 0.729303 -0.729577 0 0.834452 -0.606464 0 0.919047 -0.468417 0 0.981005 -0.318837 0 1.0188 -0.161406 0 
                </DataArray>
            </Points>
            <Polys>
                <DataArray type="Int64" Name="connectivity" format="ascii">
0 1 2 3 4 5 6 7 8 9 10 11 12 13 14 15 16 17 18 19 20 21 22 23 24 25 26 27 28 29 30 31 32 33 34 35 36 37 38 39 
                </DataArray>
                <DataArray type="Int64" Name="offsets" format="ascii">
40 
                </DataArray>
            </Polys>
        </Piece>
    </PolyData>
</VTKFile>
