<VTKFile type="PolyData" version="0.1" byte_order="LittleEndian">
    <PolyData>
        <Piece NumberOfPoints="146" NumberOfPolys="3">
            <CellData>
                <DataArray type="Float64" Name="area" format="ascii">
3.38937 1.67038 1.72555 
                </DataArray>
                <DataArray type="Float64" Name="c1" format="ascii">
0.0555718 0.0347609 0.0378897 
                </DataArray>
                <DataArray type="Float64" Name="c2" format="ascii">
0.205281 0.231399 0.190126 
                </DataArray>
                <DataArray type="Float64" Name="grad_c1" NumberOfComponents="2" format="ascii">
0.00355016 -0.000434836 0.00666931 0.0119814 -0.000401038 0.0141254 
                </DataArray>
                <DataArray type="Float64" Name="grad_c2" NumberOfComponents="2" format="ascii">
-0.0324668 0.00186027 -0.0389509 -0.00120655 -0.0280549 -0.00185688 
                </DataArray>
                <DataArray type="Float64" Name="D1" format="ascii">
20.1884 47.8887 46.4257 
                </DataArray>
                <DataArray type="Float64" Name="D2" format="ascii">
28.1376 29.476 55.2662 
                </DataArray>
                <DataArray type="Float64" Name="k1" format="ascii">
0.910378 0.571072 1.14395 
                </DataArray>
                <DataArray type="Float64" Name="k2" format="ascii">
0.1 0.1 0.1 
                </DataArray>
                <DataArray type="Float64" Name="k3" format="ascii">
1 1 1 
                </DataArray>
                <DataArray type="Int64" Name="cell_type" format="ascii">
0 1 1 
                </DataArray>
                <DataArray type="Float64" Name="perimeter" format="ascii">
6.56192 4.66992 4.73878 
                </DataArray>
                <DataArray type="Float64" Name="neighbors" format="ascii">
2 2 2 
                </DataArray>
            </CellData>
            <Points>
                <DataArray type="Float64" Name="Points" NumberOfComponents="3" format="ascii">
-1.86511 0.515536 0 -1.84457 0.415215 0 -1.78887 0.263129 0 -1.71086 0.11551 0 -1.60445 0.00349134 0 -1.47478 -0.0811296 0 -1.33557 -0.143626 0 -1.26219 -0.177135 0 -1.18879 -0.211478 0 -1.12064 -0.245166 0 -1.04386 -0.285054 0 -0.959694 -0.291422 0 -0.881406 -0.295664 0 -0.803249 -0.267302 0 -0.721846 -0.24435 0 -0.645132 -0.224735 0 -0.56654 -0.207345 0 -0.486868 -0.190147 0 -0.404365 -0.172003 0 -0.239466 -0.144102 0 -0.115619 -0.0500274 0 -0.00847161 0.0621486 0 0.0772767 0.202582 0 0.137802 0.347655 0 0.167038 0.44102 0 0.189852 0.5379 0 0.204266 0.636475 0 0.207861 0.735187 0 0.198973 0.837069 0 0.177463 0.941916 0 0.146181 1.04329 0 0.106792 1.1384 0 0.0596655 1.23019 0 0.00371657 1.32047 0 -0.0609032 1.40667 0 -0.133736 1.48651 0 -0.214136 1.56222 0 -0.301681 1.63304 0 -0.395536 1.69385 0 -0.492952 1.73978 0 -0.592571 1.77341 0 -0.694186 1.79788 0 -0.798349 1.81095 0 -0.903888 1.8084 0 -1.0087 1.78853 0 -1.11162 1.75402 0 -1.21117 1.70888 0 -1.3069 1.65653 0 -1.39749 1.59903 0 -1.48223 1.53557 0 -1.56049 1.46464 0 -1.63197 1.38554 0 -1.69411 1.30062 0 -1.74526 1.21291 0 -1.78848 1.1223 0 -1.827 1.02467 0 -1.85755 0.920091 0 -1.87397 0.816412 0 -1.87772 0.716949 0 -1.8746 0.617405 0 -1.34485 -1.5246 0 -1.23546 -1.48023 0 -1.13436 -1.42042 0 -1.0422 -1.34439 0 -1.03684 -1.24743 0 -1.03142 -1.14496 0 -1.02472 -1.04908 0 -1.0181 -0.954456 0 -1.01129 -0.855444 0 -1.00462 -0.761129 0 -0.998855 -0.668797 0 -0.992402 -0.574684 0 -0.983687 -0.484419 0 -0.975488 -0.387046 0 -1.04769 -0.295525 0 -1.14572 -0.243837 0 -1.23876 -0.199041 0 -1.37163 -0.138385 0 -1.50776 -0.0767126 0 -1.58364 -0.0712089 0 -1.66433 -0.0658895 0 -1.81604 -0.0965697 0 -1.96233 -0.153711 0 -2.09056 -0.248688 0 -2.20367 -0.358943 0 -2.26152 -0.439671 0 -2.30607 -0.533688 0 -2.33543 -0.627073 0 -2.35532 -0.722057 0 -2.36377 -0.82556 0 -2.3555 -0.923662 0 -2.33391 -1.02004 0 -2.29786 -1.11235 0 -2.24783 -1.19846 0 -2.18591 -1.28451 0 -2.11775 -1.36403 0 -2.04131 -1.43479 0 -1.95173 -1.49169 0 -1.85311 -1.53383 0 -1.75329 -1.55819 0 -1.65178 -1.56868 0 -1.54708 -1.56636 0 -1.44321 -1.55131 0 -0.776475 -0.269953 0 -0.879073 -0.306725 0 -0.963662 -0.38805 0 -0.972825 -0.475719 0 -0.981044 -0.560086 0 -0.987367 -0.646449 0 -0.992565 -0.729965 0 -0.998339 -0.815323 0 -1.00449 -0.902467 0 -1.01036 -0.987102 0 -1.01659 -1.07477 0 -1.02259 -1.16567 0 -1.02721 -1.25456 0 -1.03022 -1.34733 0 -0.943005 -1.44656 0 -0.839246 -1.52686 0 -0.725433 -1.58704 0 -0.62572 -1.62416 0 -0.521979 -1.64981 0 -0.414793 -1.66222 0 -0.306042 -1.66018 0 -0.19736 -1.64286 0 -0.0896616 -1.60885 0 0.013171 -1.55771 0 0.104866 -1.49126 0 0.18189 -1.41604 0 0.247655 -1.32804 0 0.302532 -1.23675 0 0.345501 -1.14119 0 0.374514 -1.03665 0 0.387025 -0.928549 0 0.384292 -0.823895 0 0.366953 -0.722573 0 0.333693 -0.622202 0 0.288454 -0.530659 0 0.190003 -0.396621 0 0.0631416 -0.287623 0 -0.0777793 -0.204328 0 -0.232943 -0.154722 0 -0.296683 -0.163939 0 -0.371404 -0.176484 0 -0.508186 -0.204847 0 -0.647807 -0.235682 0 
                </DataArray>
            </Points>
            <Polys>
                <DataArray type="Int64" Name="connectivity" format="ascii">
0 1 2 3 4 5 6 7 8 9 10 11 12 13 14 15 16 17 18 19 20 21 22 23 24 25 26 27 28 29 30 31 32 33 34 35 36 37 38 39 40 41 42 43 44 45 46 47 48 49 50 51 52 53 54 55 56 57 58 59 60 61 62 63 64 65 66 67 68 69 70 71 72 73 74 75 76 77 78 79 80 81 82 83 84 85 86 87 88 89 90 91 92 93 94 95 96 97 98 99 100 101 102 103 104 105 106 107 108 109 110 111 112 113 114 115 116 117 118 119 120 121 122 123 124 125 126 127 128 129 130 131 132 133 134 135 136 137 138 139 140 141 142 143 144 145 
                </DataArray>
                <DataArray type="Int64" Name="offsets" format="ascii">
60 103 146 
                </DataArray>
            </Polys>
        </Piece>
    </PolyData>
</VTKFile>
