<VTKFile type="PolyData" version="0.1" byte_order="LittleEndian">
    <PolyData>
        <Piece NumberOfPoints="2579" NumberOfPolys="59">
            <CellData>
                <DataArray type="Float64" Name="area" format="ascii">
3.17252 2.07393 2.21844 2.65937 2.95901 1.97063 3.30905 2.4551 2.15641 1.63762 1.59852 2.56282 3.13542 2.00169 2.28043 1.90609 1.68261 1.77935 1.47595 2.64344 2.28658 1.94905 1.74594 3.20343 1.82682 3.27202 2.91887 2.80594 1.77744 3.06265 2.79041 2.50866 2.77481 2.20123 1.75077 2.32851 2.73817 2.24636 2.85682 2.17327 1.5829 2.36326 1.98347 1.86884 2.42353 2.14287 1.40362 2.11415 1.95887 1.87677 2.05233 1.94087 1.66705 1.80945 1.73163 1.4573 1.66801 1.55504 1.76251 
                </DataArray>
                <DataArray type="Float64" Name="c1" format="ascii">
0.057136 0.0144385 0.0172096 0.0190123 0.0194843 0.0110122 0.0240207 0.0363281 0.0113204 0.0215918 0.0088498 0.014395 0.0114777 0.0242404 0.0358772 0.0232953 0.0119998 0.0270471 0.0160085 0.0264296 0.00937055 0.0116344 0.0161849 0.0187765 0.0157685 0.0131641 0.0389829 0.0399478 0.0129299 0.0158608 0.0175745 0.0200807 0.0139015 0.037068 0.0266698 0.0124541 0.0107326 0.0290141 0.0293972 0.0132685 0.0397775 0.0426864 0.0279842 0.0416191 0.0103083 0.00977323 0.0098889 0.033612 0.0184578 0.0123281 0.0204818 0.0140562 0.0388472 0.0131593 0.0267925 0.0123112 0.0145548 0.0194408 0.0130456 
                </DataArray>
                <DataArray type="Float64" Name="c2" format="ascii">
0.506741 0.690376 0.542387 0.657837 0.705542 0.950229 0.487624 0.443676 0.904099 0.514945 0.752087 0.822559 0.582703 0.637417 0.47015 0.477216 0.878849 0.520518 0.66234 0.557394 0.851275 0.727918 0.736763 0.66778 0.593206 0.903556 0.421141 0.476924 0.741666 0.519778 0.734943 0.589824 0.775614 0.554177 0.60322 0.611243 0.831276 0.50469 0.445116 0.936435 0.432209 0.459997 0.480269 0.501772 0.724221 0.667531 0.945864 0.585 0.61641 0.891956 0.549359 0.751178 0.522696 0.810362 0.571261 0.785662 0.658709 0.556701 0.650807 
                </DataArray>
                <DataArray type="Float64" Name="grad_c1" NumberOfComponents="2" format="ascii">
0.00175944 -0.000478426 0.00146666 0.00169366 0.00139003 0.00319229 0.00292216 -0.00312617 0.00375989 -0.00117462 -0.000147693 0.000755976 0.00126932 0.00459364 -0.00128514 -0.0036086 0.000492583 -0.000916211 0.000301615 -0.00397244 0.00025998 0.00106326 0.00140754 0.000313162 0.00063573 0.00179217 0.00604076 0.0013083 -0.000915507 0.00704832 -5.33908e-05 -0.00420252 0.000257152 0.000922404 0.000250135 -0.00702718 0.00167512 -0.00254028 0.00425621 0.00547233 0.000181831 0.000910731 0.000702729 0.00131934 0.00233664 -0.00176603 0.00321404 0.00195954 0.00164924 0.00260725 0.000262414 0.000408884 0.00417395 -0.00621479 -0.00601021 -0.00914279 0.00103035 -0.00164663 0.000972739 0.0029576 0.00300363 0.000436422 0.00161337 -0.00414044 0.0012142 0.00092585 0.0103295 0.0074906 0.00614654 -0.00453685 0.000903864 0.00189585 0.000364449 0.000994039 0.00188875 0.00651817 0.000158157 -0.00483006 0.000222235 -0.000141166 0.00305632 -0.000944749 -0.0070511 0.00222812 -0.000569339 -0.00562541 0.00251494 0.0136684 0.000493604 0.00117503 0.000435934 0.00128678 -0.000176646 0.0008352 0.0115101 -0.00204186 0.00262051 0.00276789 0.000542149 -0.000627691 0.00222963 0.00390784 0.00139497 -0.00161053 0.00215408 -0.0144697 0.00144496 -0.00108289 0.00369723 -0.00684751 0.000735273 0.00114537 0.00101862 -0.00227485 0.000663157 -0.0036598 0.00109814 0.00182243 
                </DataArray>
                <DataArray type="Float64" Name="grad_c2" NumberOfComponents="2" format="ascii">
-0.0300832 0.00404332 -0.06034 -0.00332986 -0.028637 -0.0134021 -0.0559624 0.0189885 -0.0705563 0.00804271 -0.0746672 -0.0134303 -0.0229092 -0.00718652 -0.0158842 0.00422805 -0.0732413 0.0131267 -0.0247823 0.0256866 -0.0625133 -0.0186559 -0.0700681 0.0116324 -0.0380626 -0.0207279 -0.0571675 0.00477009 -0.0198408 -0.00246319 -0.0188787 0.0165168 -0.0855897 0.00195686 -0.0315997 0.0191127 -0.0513383 0.024749 -0.0416193 -0.00102097 -0.0695925 -0.0229769 -0.0657645 -0.0216718 -0.064062 0.0108701 -0.0592069 0.000908888 -0.0455355 -0.00729735 -0.0900762 -0.00806139 -0.0132367 0.00362487 -0.0230151 0.00640255 -0.0622626 0.0282955 -0.0279543 -0.0128242 -0.0643402 0.010099 -0.0364173 0.0235947 -0.0701147 -0.00563918 -0.0432207 0.00140573 -0.0531712 0.0125684 -0.0436291 -0.0242319 -0.0700237 -0.0203674 -0.0266487 -0.00632179 -0.0140843 0.0131339 -0.0789333 -0.00149602 -0.01289 -0.000988072 -0.020012 -0.000758688 -0.0201046 0.0161423 -0.0281278 -0.000303977 -0.0617934 -0.0286019 -0.0521298 -0.0237442 -0.0772837 -0.0192097 -0.0490943 0.00174947 -0.0524378 -0.00267626 -0.0861717 0.0207295 -0.0348132 -0.00629107 -0.0658596 0.0278454 -0.0330244 0.00954413 -0.0594218 0.0225988 -0.0399882 0.0193101 -0.0713146 -0.0072994 -0.0484481 0.0287162 -0.0324397 0.0263004 -0.0562241 -0.0162236 
                </DataArray>
                <DataArray type="Float64" Name="D1" format="ascii">
20.1884 47.8887 46.4257 29.5543 23.66 26.9155 31.6639 27.4076 30.8932 41.7876 28.6995 27.0936 25.8601 46.5973 31.4408 35.0437 37.913 16.8386 22.4411 28.3868 31.9534 36.3592 34.0147 20.1184 48.0826 38.3651 47.2917 29.8961 38.9749 43.0421 26.8686 32.3324 29.6121 52.4272 42.8323 25.5713 28.1693 45.098 44.1968 28.4491 30.3703 41.505 32.6894 22.6517 35.3618 31.9818 24.0428 32.7424 26.7175 29.508 44.3121 28.2242 27.8128 26.5813 30.8246 46.914 48.7844 41.4616 31.3182 
                </DataArray>
                <DataArray type="Float64" Name="D2" format="ascii">
28.1376 29.476 55.2662 32.7903 26.1502 20.7843 31.7025 33.9204 29.999 25.2094 41.1061 34.7848 33.2469 38.6467 34.7848 56.3213 22.3241 25.0052 21.7317 17.7694 45.6173 35.0981 35.203 30.2212 14.9015 18.5881 34.7508 28.0313 24.2088 26.0686 28.7328 30.8758 30.5008 53.0714 18.1999 22.0737 37.4859 35.7535 23.7409 30.8278 21.4514 27.9131 23.3293 14.4624 29.8897 37.7594 29.304 28.5592 39.9196 26.3448 27.5206 49.805 30.1134 19.3908 37.1173 27.7042 52.5175 26.5361 31.9319 
                </DataArray>
                <DataArray type="Float64" Name="k1" format="ascii">
0.910378 0.571072 1.14395 1.54432 0.926629 1.25016 0.575564 1.55852 0.945503 0.860941 0.791226 0.616893 1.05281 1.17647 0.817944 0.63907 0.482176 1.56031 0.91796 0.830993 0.79104 0.957837 0.807719 1.03161 1.08356 0.877557 1.01713 0.934678 0.868774 1.64607 0.737187 1.13232 0.856645 1.08628 0.597704 0.754089 0.758816 0.893221 0.690579 1.14494 1.4856 0.921894 1.55448 1.14625 1.25886 1.23837 0.981043 1.37766 1.11592 1.33894 0.934055 1.04397 0.879296 1.21283 1.39915 0.756872 0.755242 0.89103 1.19026 
                </DataArray>
                <DataArray type="Float64" Name="k2" format="ascii">
0.1 0.1 0.1 0.1 0.1 0.1 0.1 0.1 0.1 0.1 0.1 0.1 0.1 0.1 0.1 0.1 0.1 0.1 0.1 0.1 0.1 0.1 0.1 0.1 0.1 0.1 0.1 0.1 0.1 0.1 0.1 0.1 0.1 0.1 0.1 0.1 0.1 0.1 0.1 0.1 0.1 0.1 0.1 0.1 0.1 0.1 0.1 0.1 0.1 0.1 0.1 0.1 0.1 0.1 0.1 0.1 0.1 0.1 0.1 
                </DataArray>
                <DataArray type="Float64" Name="k3" format="ascii">
1 1 1 1 1 1 1 1 1 1 1 1 1 1 1 1 1 1 1 1 1 1 1 1 1 1 1 1 1 1 1 1 1 1 1 1 1 1 1 1 1 1 1 1 1 1 1 1 1 1 1 1 1 1 1 1 1 1 1 
                </DataArray>
                <DataArray type="Int64" Name="cell_type" format="ascii">
0 1 1 1 1 1 1 1 1 1 2 1 1 1 1 1 1 1 1 1 2 1 1 1 1 1 1 1 1 1 1 1 1 1 1 1 1 1 1 1 1 1 1 1 1 2 2 1 1 1 1 1 1 1 1 1 1 1 1 
                </DataArray>
                <DataArray type="Float64" Name="perimeter" format="ascii">
6.6399 5.31336 5.51979 6.23171 6.3935 5.09528 6.78057 5.74037 5.28045 4.70255 4.60148 5.92001 6.41439 5.22476 5.56041 5.0532 4.75944 4.95239 4.45618 6.01804 5.56428 5.19895 4.92078 6.62702 5.03933 6.60937 6.18516 6.1783 4.8721 6.39872 6.1985 5.89994 6.12247 5.3996 4.90666 5.61039 6.16521 5.52808 6.18731 5.40768 4.66141 5.67375 5.20428 5.00154 5.78599 5.30491 4.30863 5.51911 5.1656 4.93168 5.44958 5.12382 4.75467 4.94478 4.8692 4.44349 4.70263 4.56273 5.01871 
                </DataArray>
                <DataArray type="Float64" Name="neighbors" format="ascii">
6 6 5 7 6 3 5 5 2 4 2 3 3 5 4 3 5 6 5 6 3 5 4 6 5 4 3 6 3 3 4 6 5 5 4 6 6 5 4 2 3 5 5 5 6 4 3 5 5 2 6 5 4 4 4 5 3 3 5 
                </DataArray>
            </CellData>
            <Points>
                <DataArray type="Float64" Name="Points" NumberOfComponents="3" format="ascii">
-7.67463 1.84165 0 -7.69286 1.72728 0 -7.71154 1.61264 0 -7.65287 1.4698 0 -7.52236 1.36498 0 -7.39489 1.25365 0 -7.27154 1.13779 0 -7.15348 1.0165 0 -7.00034 0.928238 0 -6.83512 0.863741 0 -6.67113 0.849829 0 -6.50699 0.825666 0 -6.34389 0.793666 0 -6.18255 0.75418 0 -6.02233 0.707739 0 -5.90213 0.754032 0 -5.79043 0.81871 0 -5.72533 0.867311 0 -5.66547 0.921631 0 -5.62559 1.09515 0 -5.58444 1.26797 0 -5.54164 1.44021 0 -5.49731 1.61088 0 -5.45142 1.78082 0 -5.54507 1.86553 0 -5.63802 1.95309 0 -5.72987 2.04298 0 -5.81829 2.13446 0 -5.90129 2.22962 0 -5.98277 2.32567 0 -6.08769 2.46029 0 -6.18791 2.59852 0 -6.32083 2.63568 0 -6.47173 2.6078 0 -6.62591 2.58551 0 -6.78009 2.5703 0 -6.93204 2.56655 0 -7.08425 2.57101 0 -7.23711 2.58354 0 -7.36163 2.50593 0 -7.4372 2.44645 0 -7.50802 2.38024 0 -7.5738 2.30812 0 -7.63223 2.2308 0 -7.64283 2.10029 0 -7.65536 1.97099 0 -9.99635 -2.97857 0 -9.91314 -2.92307 0 -9.85475 -2.81803 0 -9.81232 -2.70624 0 -9.7865 -2.59045 0 -9.84679 -2.48739 0 -9.90424 -2.38705 0 -9.96014 -2.28299 0 -10.0148 -2.17514 0 -10.0655 -2.06627 0 -10.1138 -1.95773 0 -10.1594 -1.85102 0 -10.2043 -1.74179 0 -10.2803 -1.65005 0 -10.3679 -1.57146 0 -10.468 -1.54619 0 -10.5688 -1.5225 0 -10.7217 -1.49036 0 -10.8825 -1.52714 0 -10.9661 -1.6453 0 -11.0498 -1.76347 0 -11.1081 -1.84602 0 -11.1663 -1.92854 0 -11.2248 -2.01163 0 -11.284 -2.09655 0 -11.3431 -2.18243 0 -11.4005 -2.2696 0 -11.4075 -2.40534 0 -11.3655 -2.53059 0 -11.3269 -2.65913 0 -11.2959 -2.78929 0 -11.2686 -2.92058 0 -11.2439 -3.05341 0 -11.163 -3.13682 0 -11.0715 -3.20954 0 -10.9664 -3.23387 0 -10.862 -3.25806 0 -10.7263 -3.29099 0 -10.5922 -3.32396 0 -10.4347 -3.30759 0 -10.3252 -3.22157 0 -10.217 -3.13819 0 -10.1064 -3.05405 0 -6.57545 -2.73845 0 -6.68902 -2.71277 0 -6.80508 -2.70951 0 -6.89966 -2.75824 0 -6.99433 -2.80777 0 -7.09065 -2.85816 0 -7.18407 -2.90676 0 -7.27809 -2.95564 0 -7.37192 -3.00429 0 -7.46528 -3.05179 0 -7.55972 -3.09914 0 -7.65574 -3.14732 0 -7.75093 -3.19407 0 -7.84631 -3.24216 0 -7.92725 -3.35874 0 -7.96463 -3.50353 0 -8.003 -3.64751 0 -8.05482 -3.83065 0 -8.02629 -3.92363 0 -7.99031 -4.01579 0 -7.92359 -4.08479 0 -7.85568 -4.1524 0 -7.787 -4.21992 0 -7.7172 -4.28533 0 -7.64628 -4.35133 0 -7.5748 -4.41585 0 -7.47423 -4.44545 0 -7.37194 -4.46486 0 -7.26839 -4.47057 0 -7.16497 -4.46475 0 -7.06336 -4.44687 0 -6.96415 -4.41855 0 -6.82762 -4.28858 0 -6.69332 -4.15198 0 -6.56497 -4.01271 0 -6.44204 -3.86881 0 -6.32479 -3.71649 0 -6.21381 -3.55521 0 -6.18429 -3.45463 0 -6.17144 -3.3516 0 -6.24786 -3.21001 0 -6.30583 -3.10995 0 -6.3698 -3.0137 0 -6.43536 -2.92145 0 -6.50414 -2.82937 0 -9.87216 3.425 0 -9.7662 3.3584 0 -9.63119 3.41245 0 -9.51417 3.52325 0 -9.39237 3.62751 0 -9.26276 3.72368 0 -9.12666 3.8107 0 -8.98529 3.88678 0 -8.83885 3.95569 0 -8.77015 4.0212 0 -8.70949 4.09165 0 -8.63325 4.24633 0 -8.55407 4.3975 0 -8.46789 4.54637 0 -8.37461 4.69294 0 -8.37714 4.83987 0 -8.41161 4.98633 0 -8.49272 5.13317 0 -8.5807 5.17476 0 -8.67123 5.21055 0 -8.76561 5.22382 0 -8.85741 5.23971 0 -8.94797 5.25839 0 -9.03979 5.27886 0 -9.13096 5.30234 0 -9.22103 5.32823 0 -9.31156 5.35753 0 -9.40077 5.3899 0 -9.4877 5.42497 0 -9.57516 5.45916 0 -9.68984 5.35438 0 -9.80468 5.24973 0 -9.91902 5.14479 0 -10.0338 5.04119 0 -10.15 4.93948 0 -10.2679 4.83922 0 -10.3357 4.70133 0 -10.2946 4.56136 0 -10.2687 4.46485 0 -10.2451 4.36687 0 -10.2244 4.26971 0 -10.2052 4.17235 0 -10.1865 4.07441 0 -10.1695 3.97741 0 -10.1549 3.88085 0 -10.1427 3.78339 0 -10.1319 3.68587 0 -10.1221 3.58866 0 -10.0383 3.53278 0 -9.95548 3.47876 0 -11.6715 2.51066 0 -11.6583 2.37896 0 -11.6281 2.25017 0 -11.5802 2.12638 0 -11.4576 2.09733 0 -11.3364 2.06516 0 -11.2151 2.03003 0 -11.0936 1.99189 0 -10.9729 1.95087 0 -10.8532 1.90706 0 -10.7349 1.86091 0 -10.6178 1.81236 0 -10.5011 1.76108 0 -10.3858 1.70782 0 -10.2473 1.71756 0 -10.1124 1.74835 0 -9.98413 1.83101 0 -9.89347 1.88888 0 -9.80018 1.94651 0 -9.7244 2.03749 0 -9.65756 2.13637 0 -9.60003 2.24132 0 -9.55966 2.35173 0 -9.51912 2.46188 0 -9.47812 2.57327 0 -9.54889 2.72587 0 -9.60837 2.88254 0 -9.65643 3.04112 0 -9.69537 3.20165 0 -9.76615 3.34426 0 -9.8681 3.41056 0 -9.9974 3.49398 0 -10.1237 3.57704 0 -10.2127 3.54512 0 -10.3024 3.51204 0 -10.3924 3.48138 0 -10.4832 3.45347 0 -10.5734 3.43084 0 -10.665 3.40954 0 -10.7582 3.38977 0 -10.853 3.37309 0 -10.9492 3.36144 0 -11.0457 3.3514 0 -11.1417 3.343 0 -11.2392 3.33534 0 -11.3326 3.26425 0 -11.4171 3.18251 0 -11.4983 3.08026 0 -11.5658 2.96707 0 -11.618 2.8463 0 -11.6532 2.71961 0 -11.6683 2.61588 0 -14.5739 -4.22686 0 -14.4883 -4.30396 0 -14.3931 -4.36774 0 -14.2905 -4.41812 0 -14.182 -4.45447 0 -14.089 -4.42188 0 -13.9955 -4.39043 0 -13.9024 -4.36105 0 -13.8095 -4.33253 0 -13.7164 -4.30489 0 -13.6222 -4.27896 0 -13.528 -4.25327 0 -13.4341 -4.22803 0 -13.359 -4.13645 0 -13.3273 -4.01532 0 -13.2958 -3.89639 0 -13.2634 -3.77844 0 -13.2158 -3.61087 0 -13.245 -3.42675 0 -13.3726 -3.30798 0 -13.4992 -3.18848 0 -13.6026 -3.08843 0 -13.7027 -2.98654 0 -13.8007 -2.88071 0 -13.8956 -2.77493 0 -14.0341 -2.77144 0 -14.169 -2.7922 0 -14.2985 -2.83356 0 -14.4201 -2.89505 0 -14.53 -2.97487 0 -14.6256 -3.07107 0 -14.7049 -3.18316 0 -14.7651 -3.30829 0 -14.8038 -3.44104 0 -14.8205 -3.57848 0 -14.8152 -3.71718 0 -14.7887 -3.8526 0 -14.7412 -3.98303 0 -14.673 -4.10497 0 -5.25541 -1.37156 0 -5.3817 -1.35347 0 -5.49355 -1.4221 0 -5.59571 -1.50288 0 -5.67593 -1.61298 0 -5.76222 -1.71913 0 -5.85528 -1.82108 0 -5.95465 -1.91791 0 -6.05914 -2.00846 0 -6.16814 -2.09211 0 -6.28163 -2.16904 0 -6.39907 -2.23926 0 -6.52118 -2.30253 0 -6.64766 -2.36022 0 -6.61656 -2.54767 0 -6.56676 -2.73124 0 -6.4571 -2.87456 0 -6.37525 -2.98772 0 -6.29839 -3.10298 0 -6.22946 -3.22209 0 -6.16352 -3.34347 0 -6.05722 -3.43087 0 -5.96072 -3.44735 0 -5.86573 -3.46362 0 -5.77102 -3.48067 0 -5.6765 -3.49812 0 -5.58189 -3.51561 0 -5.48906 -3.53557 0 -5.39649 -3.55566 0 -5.30408 -3.57449 0 -5.20363 -3.53449 0 -5.10768 -3.48588 0 -5.01684 -3.42945 0 -4.93058 -3.36596 0 -4.84937 -3.29596 0 -4.77427 -3.21949 0 -4.70568 -3.13684 0 -4.64446 -3.04853 0 -4.59142 -2.95512 0 -4.54688 -2.85751 0 -4.5112 -2.75614 0 -4.48438 -2.65134 0 -4.46634 -2.54399 0 -4.45774 -2.43532 0 -4.45917 -2.32653 0 -4.47008 -2.21821 0 -4.49006 -2.11066 0 -4.5196 -2.00464 0 -4.55884 -1.9017 0 -4.60731 -1.80322 0 -4.70179 -1.65734 0 -4.81631 -1.52603 0 -4.94869 -1.41176 0 -5.10172 -1.39235 0 -4.06612 1.39451 0 -3.98565 1.33088 0 -3.90385 1.26892 0 -3.81313 1.30854 0 -3.72284 1.34934 0 -3.63283 1.39164 0 -3.54318 1.43541 0 -3.45404 1.48075 0 -3.36555 1.52771 0 -3.27768 1.57636 0 -3.19047 1.62684 0 -3.104 1.67904 0 -3.01853 1.73251 0 -2.93394 1.78725 0 -2.86778 1.90072 0 -2.82375 2.02544 0 -2.82663 2.15392 0 -2.83046 2.31934 0 -2.83803 2.48514 0 -2.85296 2.652 0 -2.95702 2.81887 0 -3.09438 2.90391 0 -3.18287 2.9555 0 -3.2718 3.0059 0 -3.36207 3.05197 0 -3.45255 3.09705 0 -3.54409 3.13681 0 -3.6359 3.1762 0 -3.72946 3.21068 0 -3.8235 3.24279 0 -3.94491 3.19761 0 -4.05841 3.13351 0 -4.16116 3.05222 0 -4.25028 2.95507 0 -4.29504 2.84468 0 -4.33853 2.73346 0 -4.39227 2.59371 0 -4.4456 2.45412 0 -4.49787 2.31436 0 -4.54983 2.17403 0 -4.60014 2.03303 0 -4.59221 1.88048 0 -4.52026 1.80572 0 -4.44879 1.73202 0 -4.37573 1.65865 0 -4.29741 1.58959 0 -4.18309 1.4912 0 -13.9146 5.41082 0 -13.8815 5.27385 0 -13.8262 5.14388 0 -13.7512 5.02442 0 -13.6584 4.91806 0 -13.5613 4.90696 0 -13.4642 4.89769 0 -13.3671 4.88843 0 -13.2701 4.8794 0 -13.1741 4.87052 0 -13.0781 4.86158 0 -12.9826 4.85297 0 -12.888 4.84475 0 -12.7936 4.83759 0 -12.6871 4.87414 0 -12.5893 4.92893 0 -12.5264 5.01996 0 -12.4412 5.14271 0 -12.3558 5.26567 0 -12.2703 5.38831 0 -12.184 5.51168 0 -12.1846 5.60731 0 -12.1953 5.70233 0 -12.2169 5.795 0 -12.2479 5.88495 0 -12.2892 5.97099 0 -12.3395 6.05145 0 -12.4129 6.14278 0 -12.4976 6.22326 0 -12.5924 6.29155 0 -12.696 6.34758 0 -12.8565 6.40125 0 -13.0251 6.42256 0 -13.1933 6.41082 0 -13.3565 6.36707 0 -13.5088 6.29203 0 -13.6437 6.18896 0 -13.7568 6.06152 0 -13.8431 5.91398 0 -13.8998 5.75221 0 -13.9242 5.58174 0 -5.13817 6.2828 0 -5.26142 6.25887 0 -5.38213 6.22013 0 -5.49357 6.16292 0 -5.52732 6.07203 0 -5.55802 5.98394 0 -5.58822 5.89374 0 -5.6209 5.80076 0 -5.65393 5.70802 0 -5.68789 5.61591 0 -5.7226 5.5245 0 -5.75683 5.43211 0 -5.79129 5.3413 0 -5.82707 5.25058 0 -5.8031 5.1428 0 -5.73637 5.07406 0 -5.66975 5.00832 0 -5.6065 4.94716 0 -5.54148 4.88678 0 -5.47835 4.8285 0 -5.34818 4.80462 0 -5.23641 4.83043 0 -5.12326 4.8575 0 -5.01003 4.88457 0 -4.89629 4.91184 0 -4.78171 4.93876 0 -4.66644 4.96281 0 -4.56961 5.02959 0 -4.51115 5.19174 0 -4.47499 5.29351 0 -4.44053 5.39334 0 -4.40543 5.49507 0 -4.37116 5.59663 0 -4.33935 5.69913 0 -4.31053 5.80335 0 -4.37862 5.92858 0 -4.4696 6.04024 0 -4.54755 6.11381 0 -4.63436 6.17357 0 -4.72865 6.22303 0 -4.82624 6.2611 0 -4.92824 6.28304 0 -5.03342 6.28847 0 -9.64684 -7.37595 0 -9.55981 -7.30171 0 -9.48481 -7.21596 0 -9.42322 -7.12044 0 -9.44341 -7.03307 0 -9.46521 -6.94609 0 -9.4876 -6.85951 0 -9.51081 -6.77357 0 -9.53465 -6.68839 0 -9.55901 -6.60348 0 -9.58381 -6.51867 0 -9.609 -6.43411 0 -9.63468 -6.34953 0 -9.66082 -6.26517 0 -9.68816 -6.18207 0 -9.76026 -6.13439 0 -9.83852 -6.0986 0 -9.96485 -6.11565 0 -10.0898 -6.13619 0 -10.2139 -6.15919 0 -10.3381 -6.18449 0 -10.4624 -6.21219 0 -10.5872 -6.24263 0 -10.7122 -6.27777 0 -10.795 -6.40893 0 -10.8508 -6.55233 0 -10.8774 -6.7032 0 -10.8772 -6.81751 0 -10.8599 -6.93053 0 -10.8259 -7.04028 0 -10.776 -7.1442 0 -10.7111 -7.23917 0 -10.6331 -7.32299 0 -10.5747 -7.3717 0 -10.5118 -7.4144 0 -10.375 -7.47992 0 -10.228 -7.51758 0 -10.0761 -7.52613 0 -9.92467 -7.50508 0 -9.77954 -7.45451 0 -12.4769 1.75524 0 -12.5935 1.76381 0 -12.7893 1.74879 0 -12.979 1.69752 0 -13.1562 1.61236 0 -13.1975 1.50811 0 -13.2344 1.40213 0 -13.2691 1.29587 0 -13.3019 1.18928 0 -13.3331 1.08198 0 -13.3626 0.973888 0 -13.3905 0.865233 0 -13.4168 0.755993 0 -13.4415 0.645747 0 -13.4647 0.534359 0 -13.4851 0.422161 0 -13.4325 0.298645 0 -13.3471 0.235594 0 -13.2236 0.149699 0 -13.097 0.0667305 0 -12.9669 -0.0125269 0 -12.8322 -0.0867457 0 -12.6929 -0.156311 0 -12.5498 -0.220528 0 -12.4319 -0.216086 0 -12.3154 -0.196599 0 -12.2022 -0.162448 0 -12.0944 -0.113773 0 -11.9941 -0.0513639 0 -11.9028 0.023418 0 -11.8012 0.135407 0 -11.7198 0.262491 0 -11.7477 0.379646 0 -11.7784 0.496183 0 -11.8098 0.612555 0 -11.8428 0.728863 0 -11.8829 0.861737 0 -11.9239 0.994418 0 -11.9655 1.1271 0 -12.0076 1.25949 0 -12.0505 1.39184 0 -12.0947 1.52413 0 -12.1436 1.65385 0 -12.2507 1.69973 0 -12.3622 1.73371 0 -6.13741 -6.0401 0 -6.10644 -5.88673 0 -6.09898 -5.7307 0 -6.11427 -5.57507 0 -6.20481 -5.49677 0 -6.29603 -5.41923 0 -6.38673 -5.34129 0 -6.47812 -5.26302 0 -6.57056 -5.18542 0 -6.66342 -5.10799 0 -6.75551 -5.03186 0 -6.84719 -4.9563 0 -6.93974 -4.88181 0 -7.09239 -4.85598 0 -7.24766 -4.85384 0 -7.40265 -4.87388 0 -7.55305 -4.91788 0 -7.62636 -4.99209 0 -7.69815 -5.0669 0 -7.76805 -5.14105 0 -7.83908 -5.21643 0 -7.91226 -5.29138 0 -7.98585 -5.36574 0 -8.05948 -5.43925 0 -8.13288 -5.51211 0 -8.20598 -5.58527 0 -8.28016 -5.65838 0 -8.30015 -5.77193 0 -8.25164 -5.88248 0 -8.2045 -5.99455 0 -8.15803 -6.10703 0 -8.11241 -6.22061 0 -8.06816 -6.33475 0 -8.03299 -6.43068 0 -7.96206 -6.50815 0 -7.88477 -6.57874 0 -7.80152 -6.64177 0 -7.71225 -6.69667 0 -7.61755 -6.7431 0 -7.51857 -6.78061 0 -7.41665 -6.80901 0 -7.31255 -6.82775 0 -7.20735 -6.83624 0 -7.10223 -6.83418 0 -6.99819 -6.82127 0 -6.83084 -6.77706 0 -6.67197 -6.70559 0 -6.52548 -6.60981 0 -6.39567 -6.49275 0 -6.28625 -6.35705 0 -6.19938 -6.20481 0 -8.81478 0.882436 0 -8.78263 0.997219 0 -8.80545 1.10067 0 -8.8437 1.20005 0 -8.92208 1.27027 0 -8.99969 1.34182 0 -9.07705 1.41463 0 -9.15308 1.48757 0 -9.22794 1.56127 0 -9.30235 1.63576 0 -9.37592 1.71061 0 -9.44937 1.78632 0 -9.52246 1.86238 0 -9.59145 1.93785 0 -9.69587 1.94471 0 -9.79793 1.93529 0 -9.88479 1.88256 0 -9.99953 1.80929 0 -10.1137 1.73575 0 -10.2036 1.60094 0 -10.2637 1.45154 0 -10.2707 1.2731 0 -10.2784 1.09465 0 -10.286 0.916773 0 -10.2942 0.738726 0 -10.3028 0.561215 0 -10.2054 0.423658 0 -10.0779 0.366522 0 -9.94811 0.314495 0 -9.79816 0.258354 0 -9.64713 0.207333 0 -9.52612 0.168592 0 -9.40419 0.132584 0 -9.26548 0.182089 0 -9.13732 0.255002 0 -9.02326 0.349714 0 -8.92751 0.463743 0 -8.89099 0.603586 0 -8.85341 0.742977 0 -4.31358 -0.291585 0 -4.34062 -0.157738 0 -4.3852 -0.0285561 0 -4.44674 0.0938333 0 -4.55021 0.131972 0 -4.65378 0.17018 0 -4.75722 0.208896 0 -4.86039 0.247846 0 -4.9631 0.28706 0 -5.06541 0.326553 0 -5.16728 0.366411 0 -5.26884 0.406971 0 -5.36984 0.448138 0 -5.47008 0.489959 0 -5.5773 0.448425 0 -5.67791 0.393614 0 -5.76994 0.328074 0 -5.78582 0.235036 0 -5.81989 0.0542222 0 -5.86294 -0.123335 0 -5.91666 -0.296784 0 -5.97952 -0.465811 0 -5.95966 -0.565415 0 -5.9008 -0.643642 0 -5.841 -0.721162 0 -5.78644 -0.803391 0 -5.72591 -0.894758 0 -5.67015 -0.990287 0 -5.61436 -1.08581 0 -5.55935 -1.18243 0 -5.47707 -1.26593 0 -5.38666 -1.34119 0 -5.29963 -1.35517 0 -5.21198 -1.36739 0 -5.12387 -1.37932 0 -5.03526 -1.39074 0 -4.94625 -1.40035 0 -4.85252 -1.35466 0 -4.76397 -1.29996 0 -4.68133 -1.2369 0 -4.60509 -1.16605 0 -4.53596 -1.08803 0 -4.47472 -1.00353 0 -4.42225 -0.91332 0 -4.36954 -0.793255 0 -4.33204 -0.667495 0 -4.31083 -0.543321 0 -4.30453 -0.417369 0 -4.00228 4.45437 0 -3.91276 4.36265 0 -3.80201 4.32867 0 -3.71855 4.36961 0 -3.63561 4.41333 0 -3.5526 4.45807 0 -3.47075 4.50299 0 -3.38873 4.54861 0 -3.30607 4.59553 0 -3.22413 4.64448 0 -3.14303 4.69493 0 -3.06296 4.74635 0 -2.98393 4.79868 0 -2.90659 4.85486 0 -2.88949 4.99686 0 -2.89164 5.13849 0 -2.9145 5.27676 0 -2.98333 5.45506 0 -3.03129 5.53743 0 -3.08556 5.61562 0 -3.14943 5.68388 0 -3.2204 5.74567 0 -3.29522 5.80394 0 -3.38051 5.84965 0 -3.55875 5.91854 0 -3.65385 5.93846 0 -3.75091 5.94946 0 -3.84721 5.94989 0 -3.94373 5.93766 0 -4.03857 5.91849 0 -4.12847 5.88864 0 -4.21505 5.8491 0 -4.29871 5.79793 0 -4.32856 5.70048 0 -4.35881 5.60227 0 -4.39131 5.5056 0 -4.42406 5.41058 0 -4.45651 5.31611 0 -4.49073 5.21917 0 -4.5253 5.12312 0 -4.55708 5.03064 0 -4.51712 4.9288 0 -4.42869 4.85396 0 -4.34036 4.7764 0 -4.25307 4.6973 0 -4.1682 4.61744 0 -4.08424 4.53681 0 -13.0624 -3.42989 0 -12.9611 -3.38332 0 -12.8603 -3.33387 0 -12.7797 -3.25422 0 -12.7136 -3.16505 0 -12.6958 -3.07321 0 -12.6794 -2.98471 0 -12.6596 -2.89455 0 -12.6397 -2.80392 0 -12.6184 -2.71671 0 -12.5955 -2.62761 0 -12.5723 -2.53836 0 -12.5457 -2.45426 0 -12.5198 -2.36881 0 -12.5445 -2.27125 0 -12.5864 -2.17784 0 -12.6478 -2.1168 0 -12.7366 -2.02843 0 -12.8261 -1.94073 0 -12.9157 -1.85481 0 -13.0097 -1.76796 0 -13.1679 -1.72583 0 -13.3345 -1.77029 0 -13.5013 -1.81632 0 -13.608 -1.89937 0 -13.7015 -1.99714 0 -13.7788 -2.10744 0 -13.839 -2.22783 0 -13.8814 -2.35647 0 -13.9049 -2.4905 0 -13.9093 -2.62622 0 -13.8961 -2.75977 0 -13.7802 -2.88826 0 -13.6945 -2.98074 0 -13.6055 -3.0714 0 -13.5147 -3.15977 0 -13.4227 -3.24705 0 -13.329 -3.33496 0 -13.2333 -3.42173 0 -7.08152 4.49614 0 -7.04932 4.3666 0 -7.00102 4.24222 0 -6.93565 4.12428 0 -6.84666 4.0788 0 -6.75523 4.03336 0 -6.66481 3.98523 0 -6.5762 3.93478 0 -6.49037 3.88267 0 -6.40571 3.82895 0 -6.32238 3.7737 0 -6.24013 3.71725 0 -6.16067 3.65875 0 -6.08314 3.59843 0 -5.9744 3.59817 0 -5.88357 3.66127 0 -5.79411 3.72583 0 -5.68756 3.79961 0 -5.59874 3.93725 0 -5.58167 4.08644 0 -5.55879 4.2334 0 -5.53177 4.38065 0 -5.50075 4.52779 0 -5.46624 4.6748 0 -5.49297 4.82755 0 -5.62132 4.9474 0 -5.71573 5.03932 0 -5.80765 5.13198 0 -5.92825 5.18039 0 -6.05046 5.17535 0 -6.17286 5.17223 0 -6.29338 5.1692 0 -6.41288 5.16861 0 -6.53757 5.13016 0 -6.64888 5.00885 0 -6.7588 4.88294 0 -6.86947 4.75621 0 -6.97607 4.62874 0 -8.18108 5.95451 0 -8.17838 6.04925 0 -8.19327 6.14258 0 -8.26236 6.18817 0 -8.33056 6.23153 0 -8.40349 6.27625 0 -8.47452 6.31783 0 -8.54744 6.35887 0 -8.61657 6.39666 0 -8.68734 6.43436 0 -8.75991 6.47173 0 -8.83459 6.50831 0 -8.91231 6.54429 0 -8.98774 6.57822 0 -9.07296 6.57703 0 -9.16097 6.55634 0 -9.24132 6.52235 0 -9.33208 6.42444 0 -9.42154 6.3234 0 -9.50711 6.21776 0 -9.58703 6.10895 0 -9.66201 5.99563 0 -9.67923 5.82864 0 -9.62908 5.64986 0 -9.60305 5.55978 0 -9.57553 5.47175 0 -9.43255 5.41333 0 -9.33813 5.37766 0 -9.24196 5.34538 0 -9.14691 5.31722 0 -9.05163 5.29212 0 -8.95509 5.27014 0 -8.85962 5.25029 0 -8.76512 5.23382 0 -8.67097 5.22104 0 -8.57392 5.24215 0 -8.48244 5.27873 0 -8.39181 5.43969 0 -8.33912 5.54105 0 -8.29202 5.64289 0 -8.25072 5.74679 0 -8.21269 5.85034 0 -7.37984 -1.68236 0 -7.28945 -1.5245 0 -7.25691 -1.34922 0 -7.22177 -1.17397 0 -7.18356 -0.999668 0 -7.14172 -0.826052 0 -7.09988 -0.652615 0 -7.16055 -0.527384 0 -7.27327 -0.411191 0 -7.3858 -0.294684 0 -7.52654 -0.212393 0 -7.68713 -0.155369 0 -7.8543 -0.143486 0 -8.02094 -0.131083 0 -8.18727 -0.118371 0 -8.35388 -0.105304 0 -8.52151 -0.0915425 0 -8.6469 -0.127488 0 -8.76572 -0.181553 0 -8.87566 -0.25248 0 -8.97471 -0.338703 0 -9.06074 -0.438525 0 -9.08401 -0.548633 0 -9.10399 -0.660795 0 -9.12225 -0.773246 0 -9.14525 -0.958862 0 -9.07796 -1.03505 0 -9.01002 -1.11023 0 -8.94274 -1.18636 0 -8.87559 -1.26251 0 -8.80953 -1.33942 0 -8.74388 -1.41739 0 -8.6787 -1.49653 0 -8.61454 -1.57601 0 -8.55038 -1.65601 0 -8.48692 -1.73699 0 -8.34853 -1.72914 0 -8.21201 -1.72012 0 -8.07386 -1.71134 0 -7.93367 -1.70344 0 -7.79327 -1.69694 0 -7.65383 -1.691 0 -7.51684 -1.68587 0 -11.258 -5.65519 0 -11.2787 -5.54447 0 -11.3021 -5.4214 0 -11.3273 -5.29922 0 -11.4478 -5.17452 0 -11.5867 -5.07036 0 -11.7163 -5.07777 0 -11.8462 -5.08468 0 -11.976 -5.09075 0 -12.1059 -5.09252 0 -12.2365 -5.09232 0 -12.3679 -5.09033 0 -12.4984 -5.08397 0 -12.6297 -5.0763 0 -12.7615 -5.0682 0 -12.8711 -5.09627 0 -12.9721 -5.14651 0 -13.0219 -5.25849 0 -13.0877 -5.40474 0 -13.1535 -5.54989 0 -13.1389 -5.65612 0 -13.1135 -5.75869 0 -13.0787 -5.85805 0 -13.0349 -5.95366 0 -12.9826 -6.04439 0 -12.9217 -6.12918 0 -12.8554 -6.20408 0 -12.7813 -6.2726 0 -12.7007 -6.33417 0 -12.615 -6.38813 0 -12.5251 -6.43352 0 -12.4315 -6.46971 0 -12.2906 -6.50563 0 -12.1467 -6.52159 0 -12.002 -6.51789 0 -11.8599 -6.4947 0 -11.7229 -6.45226 0 -11.5935 -6.3911 0 -11.4745 -6.31252 0 -11.3682 -6.21817 0 -11.2765 -6.10963 0 -11.2012 -5.98978 0 -11.2189 -5.87797 0 -11.238 -5.76632 0 -11.3158 -4.84185 0 -11.223 -4.90252 0 -11.118 -4.94502 0 -11.0062 -4.96663 0 -10.9117 -4.94316 0 -10.819 -4.91726 0 -10.7267 -4.88917 0 -10.6356 -4.85925 0 -10.5455 -4.82628 0 -10.4586 -4.78896 0 -10.3725 -4.74885 0 -10.2859 -4.70604 0 -10.1996 -4.66117 0 -10.1166 -4.61403 0 -10.0807 -4.51409 0 -10.1127 -4.41978 0 -10.1712 -4.25351 0 -10.2307 -4.08473 0 -10.2902 -3.9161 0 -10.3336 -3.79182 0 -10.3759 -3.66973 0 -10.4193 -3.54989 0 -10.4643 -3.42956 0 -10.5999 -3.33233 0 -10.7745 -3.28946 0 -10.9236 -3.2539 0 -11.0717 -3.22077 0 -11.2253 -3.25831 0 -11.3678 -3.32757 0 -11.4814 -3.42847 0 -11.5952 -3.52742 0 -11.591 -3.64134 0 -11.582 -3.75546 0 -11.5707 -3.86919 0 -11.5581 -3.98171 0 -11.5439 -4.09464 0 -11.5274 -4.20762 0 -11.5084 -4.32131 0 -11.4875 -4.43522 0 -11.4654 -4.54856 0 -11.4312 -4.71773 0 -10.8235 4.88781 0 -10.9388 4.91474 0 -11.0603 4.8972 0 -11.1168 4.8171 0 -11.1737 4.73623 0 -11.2304 4.65414 0 -11.286 4.57186 0 -11.3411 4.4895 0 -11.3949 4.40546 0 -11.448 4.32048 0 -11.5004 4.23449 0 -11.552 4.14734 0 -11.6033 4.05942 0 -11.6515 3.97063 0 -11.6347 3.84514 0 -11.5964 3.726 0 -11.5376 3.6141 0 -11.4546 3.50635 0 -11.3532 3.41633 0 -11.2371 3.34687 0 -11.1134 3.35538 0 -10.9885 3.36727 0 -10.8635 3.38177 0 -10.74 3.4037 0 -10.618 3.43058 0 -10.4958 3.46049 0 -10.4027 3.48859 0 -10.3115 3.51944 0 -10.2222 3.55218 0 -10.1336 3.58634 0 -10.1414 3.68132 0 -10.1519 3.77617 0 -10.1636 3.87042 0 -10.1776 3.96454 0 -10.1938 4.05835 0 -10.2114 4.15162 0 -10.2296 4.24484 0 -10.249 4.33783 0 -10.2705 4.43019 0 -10.2944 4.52246 0 -10.3204 4.61407 0 -10.3485 4.70407 0 -10.4411 4.78527 0 -10.5353 4.81299 0 -10.6296 4.83934 0 -10.7262 4.86356 0 -11.0947 -1.02289 0 -11.0382 -1.11428 0 -10.9577 -1.24973 0 -10.8783 -1.38587 0 -10.8007 -1.4357 0 -10.7194 -1.47987 0 -10.5448 -1.51755 0 -10.3684 -1.55987 0 -10.1856 -1.5247 0 -10.0552 -1.41687 0 -9.91948 -1.31677 0 -9.77805 -1.22215 0 -9.63001 -1.14127 0 -9.474 -1.07239 0 -9.316 -1.0103 0 -9.15686 -0.956961 0 -9.13368 -0.782261 0 -9.12004 -0.695958 0 -9.10545 -0.610538 0 -9.08983 -0.525672 0 -9.07272 -0.440524 0 -9.1062 -0.336363 0 -9.1488 -0.234885 0 -9.20037 -0.137783 0 -9.26054 -0.0459926 0 -9.32961 0.0405826 0 -9.40712 0.121413 0 -9.503 0.150982 0 -9.59773 0.180679 0 -9.69138 0.211496 0 -9.78456 0.242756 0 -9.8761 0.27686 0 -9.9675 0.311211 0 -10.0868 0.359425 0 -10.2056 0.411668 0 -10.3375 0.399432 0 -10.4675 0.371808 0 -10.5822 0.31189 0 -10.6982 0.255081 0 -10.815 0.200678 0 -10.9341 0.148522 0 -11.0376 0.105168 0 -11.1422 0.0639424 0 -11.2117 -0.0311467 0 -11.2713 -0.131684 0 -11.3206 -0.237449 0 -11.3594 -0.348716 0 -11.3872 -0.463877 0 -11.4042 -0.580741 0 -11.3415 -0.667639 0 -11.2773 -0.754853 0 -11.2137 -0.843469 0 -11.1529 -0.932628 0 -9.49407 -2.67478 0 -9.54131 -2.77649 0 -9.5719 -2.88701 0 -9.57744 -3.00308 0 -9.52282 -3.09524 0 -9.46976 -3.17961 0 -9.41364 -3.26288 0 -9.35525 -3.34951 0 -9.29828 -3.43635 0 -9.2416 -3.52187 0 -9.1872 -3.6056 0 -9.13058 -3.69136 0 -9.07147 -3.77797 0 -9.0145 -3.86297 0 -8.95298 -3.951 0 -8.86158 -4.0188 0 -8.7577 -4.06364 0 -8.6195 -4.04525 0 -8.48354 -4.01981 0 -8.34685 -3.98866 0 -8.21033 -3.95308 0 -8.06728 -3.83268 0 -8.02278 -3.68118 0 -7.99348 -3.57344 0 -7.96401 -3.46155 0 -7.9353 -3.34993 0 -7.95152 -3.22103 0 -8.00816 -3.14157 0 -8.06707 -3.06481 0 -8.18608 -2.91107 0 -8.31332 -2.76119 0 -8.43815 -2.61472 0 -8.50071 -2.54304 0 -8.56485 -2.471 0 -8.73078 -2.405 0 -8.83891 -2.44063 0 -8.94327 -2.47734 0 -9.05113 -2