<VTKFile type="PolyData" version="0.1" byte_order="LittleEndian">
    <PolyData>
        <Piece NumberOfPoints="76" NumberOfPolys="2">
            <CellData>
                <DataArray type="Float64" Name="area" format="ascii">
2.69325 2.69391 
                </DataArray>
                <DataArray type="Float64" Name="c1" format="ascii">
0.0390828 0.0246585 
                </DataArray>
                <DataArray type="Float64" Name="c2" format="ascii">
0.121883 0.125069 
                </DataArray>
                <DataArray type="Float64" Name="grad_c1" NumberOfComponents="2" format="ascii">
0.00137422 -0.000691624 0.00214812 0.00990999 
                </DataArray>
                <DataArray type="Float64" Name="grad_c2" NumberOfComponents="2" format="ascii">
-0.0258356 0.000511703 -0.0264401 -0.000493392 
                </DataArray>
                <DataArray type="Float64" Name="D1" format="ascii">
20.1884 47.8887 
                </DataArray>
                <DataArray type="Float64" Name="D2" format="ascii">
28.1376 29.476 
                </DataArray>
                <DataArray type="Float64" Name="k1" format="ascii">
0.910378 0.571072 
                </DataArray>
                <DataArray type="Float64" Name="k2" format="ascii">
0.1 0.1 
                </DataArray>
                <DataArray type="Float64" Name="k3" format="ascii">
1 1 
                </DataArray>
                <DataArray type="Int64" Name="cell_type" format="ascii">
0 1 
                </DataArray>
                <DataArray type="Float64" Name="perimeter" format="ascii">
5.85015 5.85085 
                </DataArray>
                <DataArray type="Float64" Name="neighbors" format="ascii">
1 1 
                </DataArray>
            </CellData>
            <Points>
                <DataArray type="Float64" Name="Points" NumberOfComponents="3" format="ascii">
-1.23441 0.615185 0 -1.18625 0.474573 0 -1.1164 0.343419 0 -1.02664 0.225041 0 -0.919243 0.122438 0 -0.79694 0.0382043 0 -0.662702 0.0267434 0 -0.528433 0.0158549 0 -0.394174 0.00496866 0 -0.259916 -0.00591648 0 -0.125652 -0.016801 0 0.00858135 -0.0270418 0 0.142863 0.0364099 0 0.265383 0.120392 0 0.373034 0.222783 0 0.463087 0.340988 0 0.533255 0.472019 0 0.590572 0.64988 0 0.611343 0.835643 0 0.594725 1.02188 0 0.541372 1.20113 0 0.453407 1.36623 0 0.334341 1.51057 0 0.18893 1.62838 0 0.0229768 1.71495 0 -0.0658799 1.74546 0 -0.157343 1.76696 0 -0.250498 1.77921 0 -0.34441 1.78211 0 -0.43814 1.77561 0 -0.530749 1.7598 0 -0.70847 1.70106 0 -0.870945 1.60819 0 -1.01169 1.48488 0 -1.12507 1.33609 0 -1.20658 1.16776 0 -1.25295 0.986632 0 -1.26235 0.799949 0 0.445092 -0.615212 0 0.396919 -0.474582 0 0.327056 -0.343413 0 0.237279 -0.225023 0 0.129865 -0.122411 0 0.00754085 -0.038171 0 -0.126699 -0.0267131 0 -0.26097 -0.0158275 0 -0.395231 -0.00494208 0 -0.529491 0.00594425 0 -0.663757 0.016832 0 -0.797992 0.027076 0 -0.932296 -0.0363778 0 -1.05484 -0.120366 0 -1.16251 -0.222767 0 -1.25258 -0.340984 0 -1.32276 -0.47203 0 -1.38009 -0.649914 0 -1.40087 -0.835702 0 -1.38425 -1.02196 0 -1.3309 -1.20124 0 -1.24292 -1.36636 0 -1.12384 -1.51073 0 -0.978413 -1.62856 0 -0.812438 -1.71514 0 -0.723569 -1.74566 0 -0.632093 -1.76715 0 -0.538925 -1.77941 0 -0.445 -1.7823 0 -0.351257 -1.77581 0 -0.258636 -1.75999 0 -0.0808911 -1.70125 0 0.0816052 -1.60836 0 0.222365 -1.48503 0 0.335766 -1.33622 0 0.417278 -1.16786 0 0.463652 -0.986709 0 0.473045 -0.8 0 
                </DataArray>
            </Points>
            <Polys>
                <DataArray type="Int64" Name="connectivity" format="ascii">
0 1 2 3 4 5 6 7 8 9 10 11 12 13 14 15 16 17 18 19 20 21 22 23 24 25 26 27 28 29 30 31 32 33 34 35 36 37 38 39 40 41 42 43 44 45 46 47 48 49 50 51 52 53 54 55 56 57 58 59 60 61 62 63 64 65 66 67 68 69 70 71 72 73 74 75 
                </DataArray>
                <DataArray type="Int64" Name="offsets" format="ascii">
38 76 
                </DataArray>
            </Polys>
        </Piece>
    </PolyData>
</VTKFile>
