<VTKFile type="PolyData" version="0.1" byte_order="LittleEndian">
    <PolyData>
        <Piece NumberOfPoints="76" NumberOfPolys="2">
            <CellData>
                <DataArray type="Float64" Name="area" format="ascii">
2.49368 2.4942 
                </DataArray>
                <DataArray type="Float64" Name="c1" format="ascii">
0.0369127 0.0230669 
                </DataArray>
                <DataArray type="Float64" Name="c2" format="ascii">
0.0971428 0.0998862 
                </DataArray>
                <DataArray type="Float64" Name="grad_c1" NumberOfComponents="2" format="ascii">
0.00141502 -0.000803233 0.00183266 0.00908028 
                </DataArray>
                <DataArray type="Float64" Name="grad_c2" NumberOfComponents="2" format="ascii">
-0.0229679 0.000417014 -0.0234906 -0.000385199 
                </DataArray>
                <DataArray type="Float64" Name="D1" format="ascii">
20.1884 47.8887 
                </DataArray>
                <DataArray type="Float64" Name="D2" format="ascii">
28.1376 29.476 
                </DataArray>
                <DataArray type="Float64" Name="k1" format="ascii">
0.910378 0.571072 
                </DataArray>
                <DataArray type="Float64" Name="k2" format="ascii">
0.1 0.1 
                </DataArray>
                <DataArray type="Float64" Name="k3" format="ascii">
1 1 
                </DataArray>
                <DataArray type="Int64" Name="cell_type" format="ascii">
0 1 
                </DataArray>
                <DataArray type="Float64" Name="perimeter" format="ascii">
5.62921 5.6298 
                </DataArray>
                <DataArray type="Float64" Name="neighbors" format="ascii">
1 1 
                </DataArray>
            </CellData>
            <Points>
                <DataArray type="Float64" Name="Points" NumberOfComponents="3" format="ascii">
-1.0836 0.59143 0 -1.03716 0.456156 0 -0.969853 0.330016 0 -0.883397 0.216179 0 -0.779982 0.117556 0 -0.662237 0.0366258 0 -0.533061 0.0256571 0 -0.403855 0.0152576 0 -0.274658 0.00485929 0 -0.145461 -0.0055382 0 -0.016261 -0.015934 0 0.112908 -0.0256876 0 0.242087 0.0353936 0 0.35994 0.11623 0 0.463481 0.214794 0 0.550083 0.328566 0 0.617539 0.454684 0 0.672603 0.625842 0 0.692489 0.804587 0 0.676395 0.983779 0 0.624958 1.15623 0 0.540218 1.31503 0 0.425552 1.45385 0 0.285525 1.56712 0 0.125765 1.6503 0 0.040235 1.67961 0 -0.0478003 1.70023 0 -0.137459 1.71197 0 -0.227842 1.7147 0 -0.318041 1.70841 0 -0.407154 1.69314 0 -0.578148 1.63654 0 -0.734468 1.54709 0 -0.869835 1.42837 0 -0.978852 1.28514 0 -1.05718 1.12313 0 -1.10169 0.948808 0 -1.11061 0.769182 0 0.533301 -0.591667 0 0.486856 -0.456378 0 0.419533 -0.330225 0 0.333062 -0.216378 0 0.229631 -0.117748 0 0.111869 -0.0368126 0 -0.0173091 -0.0258462 0 -0.146518 -0.0154492 0 -0.275716 -0.00505159 0 -0.404915 0.00534693 0 -0.534116 0.0157454 0 -0.663287 0.0255017 0 -0.792484 -0.0355815 0 -0.910355 -0.116423 0 -1.01391 -0.214995 0 -1.10053 -0.328778 0 -1.168 -0.454909 0 -1.22307 -0.626086 0 -1.24296 -0.804852 0 -1.22687 -0.984066 0 -1.17543 -1.15653 0 -1.09069 -1.31536 0 -0.976007 -1.45419 0 -0.835964 -1.56748 0 -0.676186 -1.65068 0 -0.590646 -1.67998 0 -0.5026 -1.70061 0 -0.41293 -1.71235 0 -0.322537 -1.71509 0 -0.232326 -1.70878 0 -0.143203 -1.69352 0 0.0278115 -1.63691 0 0.184149 -1.54745 0 0.319531 -1.42872 0 0.428559 -1.28547 0 0.506889 -1.12343 0 0.551402 -0.949087 0 0.560323 -0.76944 0 
                </DataArray>
            </Points>
            <Polys>
                <DataArray type="Int64" Name="connectivity" format="ascii">
0 1 2 3 4 5 6 7 8 9 10 11 12 13 14 15 16 17 18 19 20 21 22 23 24 25 26 27 28 29 30 31 32 33 34 35 36 37 38 39 40 41 42 43 44 45 46 47 48 49 50 51 52 53 54 55 56 57 58 59 60 61 62 63 64 65 66 67 68 69 70 71 72 73 74 75 
                </DataArray>
                <DataArray type="Int64" Name="offsets" format="ascii">
38 76 
                </DataArray>
            </Polys>
        </Piece>
    </PolyData>
</VTKFile>
