<VTKFile type="PolyData" version="0.1" byte_order="LittleEndian">
    <PolyData>
        <Piece NumberOfPoints="76" NumberOfPolys="2">
            <CellData>
                <DataArray type="Float64" Name="area" format="ascii">
2.89243 2.89321 
                </DataArray>
                <DataArray type="Float64" Name="c1" format="ascii">
0.0449324 0.0280606 
                </DataArray>
                <DataArray type="Float64" Name="c2" format="ascii">
0.148549 0.15248 
                </DataArray>
                <DataArray type="Float64" Name="grad_c1" NumberOfComponents="2" format="ascii">
0.00351981 -0.00124006 0.00316787 0.010618 
                </DataArray>
                <DataArray type="Float64" Name="grad_c2" NumberOfComponents="2" format="ascii">
-0.0289142 0.000646158 -0.0294051 -0.000520382 
                </DataArray>
                <DataArray type="Float64" Name="D1" format="ascii">
20.1884 47.8887 
                </DataArray>
                <DataArray type="Float64" Name="D2" format="ascii">
28.1376 29.476 
                </DataArray>
                <DataArray type="Float64" Name="k1" format="ascii">
0.910378 0.571072 
                </DataArray>
                <DataArray type="Float64" Name="k2" format="ascii">
0.1 0.1 
                </DataArray>
                <DataArray type="Float64" Name="k3" format="ascii">
1 1 
                </DataArray>
                <DataArray type="Int64" Name="cell_type" format="ascii">
0 1 
                </DataArray>
                <DataArray type="Float64" Name="perimeter" format="ascii">
6.06263 6.06344 
                </DataArray>
                <DataArray type="Float64" Name="neighbors" format="ascii">
1 1 
                </DataArray>
            </CellData>
            <Points>
                <DataArray type="Float64" Name="Points" NumberOfComponents="3" format="ascii">
-1.40011 0.637919 0 -1.35028 0.492162 0 -1.27797 0.356192 0 -1.18502 0.233448 0 -1.07379 0.127036 0 -0.947087 0.0396483 0 -0.807981 0.0277218 0 -0.668843 0.0163708 0 -0.529713 0.00502182 0 -0.390585 -0.00632582 0 -0.251451 -0.0176724 0 -0.112347 -0.0283748 0 0.0268435 0.0373465 0 0.153852 0.124346 0 0.265458 0.230425 0 0.358832 0.352897 0 0.431605 0.488667 0 0.491084 0.67297 0 0.512693 0.865476 0 0.49556 1.05848 0 0.440359 1.24427 0 0.349288 1.41541 0 0.225981 1.56505 0 0.0753598 1.68721 0 -0.096561 1.77701 0 -0.188621 1.80867 0 -0.283388 1.83099 0 -0.379912 1.84373 0 -0.477226 1.84678 0 -0.574356 1.8401 0 -0.670328 1.82375 0 -0.854518 1.76297 0 -1.02293 1.6668 0 -1.16883 1.5391 0 -1.28641 1.38496 0 -1.37096 1.21056 0 -1.41911 1.02288 0 -1.42896 0.829416 0 0.33973 -0.637847 0 0.289888 -0.49207 0 0.217564 -0.356083 0 0.124594 -0.233324 0 0.0133362 -0.126902 0 -0.113387 -0.0395075 0 -0.252495 -0.0275845 0 -0.391636 -0.0162368 0 -0.530768 -0.00488887 0 -0.669899 0.00646013 0 -0.809034 0.0178105 0 -0.94814 0.0285167 0 -1.08736 -0.0372071 0 -1.21439 -0.124214 0 -1.32602 -0.230303 0 -1.41941 -0.35279 0 -1.4922 -0.488577 0 -1.55169 -0.672907 0 -1.57331 -0.865441 0 -1.55618 -1.05848 0 -1.50098 -1.24429 0 -1.4099 -1.41546 0 -1.28657 -1.56513 0 -1.13593 -1.68731 0 -0.963984 -1.77712 0 -0.87191 -1.80879 0 -0.777129 -1.83111 0 -0.68059 -1.84386 0 -0.583261 -1.84691 0 -0.486117 -1.84022 0 -0.39013 -1.82387 0 -0.205912 -1.76308 0 -0.0374768 -1.6669 0 0.108449 -1.53917 0 0.226038 -1.385 0 0.310597 -1.21058 0 0.358754 -1.02286 0 0.368592 -0.829373 0 
                </DataArray>
            </Points>
            <Polys>
                <DataArray type="Int64" Name="connectivity" format="ascii">
0 1 2 3 4 5 6 7 8 9 10 11 12 13 14 15 16 17 18 19 20 21 22 23 24 25 26 27 28 29 30 31 32 33 34 35 36 37 38 39 40 41 42 43 44 45 46 47 48 49 50 51 52 53 54 55 56 57 58 59 60 61 62 63 64 65 66 67 68 69 70 71 72 73 74 75 
                </DataArray>
                <DataArray type="Int64" Name="offsets" format="ascii">
38 76 
                </DataArray>
            </Polys>
        </Piece>
    </PolyData>
</VTKFile>
