<VTKFile type="PolyData" version="0.1" byte_order="LittleEndian">
    <PolyData>
        <Piece NumberOfPoints="190" NumberOfPolys="4">
            <CellData>
                <DataArray type="Float64" Name="area" format="ascii">
2.63539 2.7716 2.95403 2.60733 
                </DataArray>
                <DataArray type="Float64" Name="c1" format="ascii">
0.0486706 0.0250482 0.0320972 0.0325027 
                </DataArray>
                <DataArray type="Float64" Name="c2" format="ascii">
0.284728 0.349222 0.288995 0.337968 
                </DataArray>
                <DataArray type="Float64" Name="grad_c1" NumberOfComponents="2" format="ascii">
0.00258522 -0.000209261 0.00589097 0.00463445 0.00204082 0.0104991 0.0118065 -0.00151221 
                </DataArray>
                <DataArray type="Float64" Name="grad_c2" NumberOfComponents="2" format="ascii">
-0.0340076 0.000887424 -0.0411114 -0.000412043 -0.033741 -0.00212579 -0.0405001 0.000553009 
                </DataArray>
                <DataArray type="Float64" Name="D1" format="ascii">
20.1884 47.8887 46.4257 29.5543 
                </DataArray>
                <DataArray type="Float64" Name="D2" format="ascii">
28.1376 29.476 55.2662 32.7903 
                </DataArray>
                <DataArray type="Float64" Name="k1" format="ascii">
0.910378 0.571072 1.14395 1.54432 
                </DataArray>
                <DataArray type="Float64" Name="k2" format="ascii">
0.1 0.1 0.1 0.1 
                </DataArray>
                <DataArray type="Float64" Name="k3" format="ascii">
1 1 1 1 
                </DataArray>
                <DataArray type="Int64" Name="cell_type" format="ascii">
0 1 1 1 
                </DataArray>
                <DataArray type="Float64" Name="perimeter" format="ascii">
5.90663 6.0525 6.23048 5.89627 
                </DataArray>
                <DataArray type="Float64" Name="neighbors" format="ascii">
2 2 2 2 
                </DataArray>
            </CellData>
            <Points>
                <DataArray type="Float64" Name="Points" NumberOfComponents="3" format="ascii">
-1.46758 1.69282 0 -1.61293 1.61383 0 -1.74242 1.51118 0 -1.75313 1.39817 0 -1.76133 1.28491 0 -1.76931 1.17174 0 -1.77712 1.05847 0 -1.78474 0.945283 0 -1.79217 0.832202 0 -1.79942 0.719142 0 -1.80649 0.606098 0 -1.81339 0.493084 0 -1.8201 0.379992 0 -1.82668 0.266912 0 -1.83223 0.153986 0 -1.73403 0.0526794 0 -1.58114 -0.0520477 0 -1.43946 -0.060437 0 -1.34471 -0.0659917 0 -1.25003 -0.0709798 0 -1.15522 -0.0754409 0 -1.06044 -0.07997 0 -0.870439 -0.0871045 0 -0.775475 -0.089306 0 -0.679133 -0.0506776 0 -0.58777 -0.00212065 0 -0.501725 0.0564702 0 -0.423033 0.124145 0 -0.351845 0.199571 0 -0.289363 0.282701 0 -0.236285 0.371818 0 -0.183749 0.491743 0 -0.148055 0.617391 0 -0.129774 0.746912 0 -0.129524 0.877748 0 -0.147082 1.0075 0 -0.182168 1.13348 0 -0.234078 1.25373 0 -0.302119 1.36568 0 -0.384516 1.46733 0 -0.480229 1.5569 0 -0.587195 1.6325 0 -0.703409 1.69285 0 -0.826839 1.73678 0 -0.954978 1.76332 0 -1.08554 1.77231 0 -1.21616 1.76335 0 -1.34434 1.73657 0 -2.38659 -1.78976 0 -2.2528 -1.72102 0 -2.1314 -1.63237 0 -2.02544 -1.5259 0 -2.01711 -1.39412 0 -2.00852 -1.26248 0 -1.99978 -1.13086 0 -1.99091 -0.99919 0 -1.98194 -0.867631 0 -1.97287 -0.736218 0 -1.96368 -0.6047 0 -1.9544 -0.473297 0 -1.9451 -0.342033 0 -1.93722 -0.210604 0 -2.08168 -0.0744621 0 -2.23713 -0.0527137 0 -2.39256 -0.0313555 0 -2.49462 -0.0166369 0 -2.59669 -0.00152077 0 -2.69875 0.0140599 0 -2.80078 0.0296864 0 -2.90273 0.0455197 0 -2.99967 0.0265801 0 -3.18445 -0.0412861 0 -3.35139 -0.145581 0 -3.49347 -0.281867 0 -3.60477 -0.444426 0 -3.65691 -0.557394 0 -3.69398 -0.676227 0 -3.71536 -0.798975 0 -3.72063 -0.923462 0 -3.70974 -1.04754 0 -3.68292 -1.16925 0 -3.6406 -1.28658 0 -3.58342 -1.39738 0 -3.51239 -1.4998 0 -3.42872 -1.59228 0 -3.3338 -1.67325 0 -3.22921 -1.74122 0 -3.1167 -1.79508 0 -2.99813 -1.83398 0 -2.87558 -1.8572 0 -2.75111 -1.86435 0 -2.6267 -1.85537 0 -2.50449 -1.83038 0 -1.48671 -0.0676525 0 -1.58839 -0.0618131 0 -1.76236 -0.124121 0 -1.92439 -0.213563 0 -1.93451 -0.332994 0 -1.94294 -0.452597 0 -1.9514 -0.572274 0 -1.95979 -0.691925 0 -1.96809 -0.811606 0 -1.97632 -0.931442 0 -1.98444 -1.05125 0 -1.99247 -1.17102 0 -2.0004 -1.29091 0 -2.0082 -1.41088 0 -2.01404 -1.53084 0 -1.91943 -1.66029 0 -1.80536 -1.77285 0 -1.67436 -1.86549 0 -1.55535 -1.92582 0 -1.42922 -1.96954 0 -1.29835 -1.99588 0 -1.16512 -2.00456 0 -1.03188 -1.99518 0 -0.901056 -1.96808 0 -0.775054 -1.92371 0 -0.656284 -1.86282 0 -0.546688 -1.78665 0 -0.448353 -1.69645 0 -0.362959 -1.59394 0 -0.29213 -1.48087 0 -0.237084 -1.35941 0 -0.19889 -1.2316 0 -0.178104 -1.0999 0 -0.17516 -0.966711 0 -0.190185 -0.834237 0 -0.222951 -0.704993 0 -0.260967 -0.606306 0 -0.309468 -0.512092 0 -0.367613 -0.423758 0 -0.434945 -0.341979 0 -0.510582 -0.268224 0 -0.59357 -0.202826 0 -0.683115 -0.146479 0 -0.778294 -0.100275 0 -0.879382 -0.0967484 0 -0.980627 -0.092919 0 -1.08184 -0.0890847 0 -1.18307 -0.0841089 0 -1.28429 -0.0793326 0 -1.3857 -0.073607 0 -2.22142 -0.0448313 0 -2.0845 -0.0620879 0 -1.95548 0.0344897 0 -1.84423 0.151385 0 -1.83619 0.274525 0 -1.82903 0.397811 0 -1.82168 0.521138 0 -1.8141 0.644468 0 -1.80631 0.767786 0 -1.7983 0.891151 0 -1.79008 1.01457 0 -1.78164 1.13809 0 -1.77298 1.26155 0 -1.76408 1.38504 0 -1.75488 1.50872 0 -1.86509 1.62214 0 -1.99268 1.71571 0 -2.10335 1.77376 0 -2.22074 1.8167 0 -2.3428 1.84392 0 -2.4674 1.85492 0 -2.59232 1.84943 0 -2.71544 1.82756 0 -2.83464 1.78973 0 -2.94784 1.7366 0 -3.05309 1.66912 0 -3.14854 1.58838 0 -3.23253 1.49573 0 -3.3036 1.39288 0 -3.36051 1.28167 0 -3.40232 1.16394 0 -3.42829 1.04173 0 -3.43793 0.917256 0 -3.43113 0.792641 0 -3.40802 0.669953 0 -3.36897 0.551381 0 -3.27614 0.377101 0 -3.21641 0.298022 0 -3.14876 0.225627 0 -2.99314 0.104273 0 -2.90643 0.0563342 0 -2.82085 0.0428667 0 -2.6498 0.0166469 0 -2.56425 0.00373289 0 -2.47864 -0.00888624 0 -2.39295 -0.021226 0 -2.30719 -0.0330341 0 
                </DataArray>
            </Points>
            <Polys>
                <DataArray type="Int64" Name="connectivity" format="ascii">
0 1 2 3 4 5 6 7 8 9 10 11 12 13 14 15 16 17 18 19 20 21 22 23 24 25 26 27 28 29 30 31 32 33 34 35 36 37 38 39 40 41 42 43 44 45 46 47 48 49 50 51 52 53 54 55 56 57 58 59 60 61 62 63 64 65 66 67 68 69 70 71 72 73 74 75 76 77 78 79 80 81 82 83 84 85 86 87 88 89 90 91 92 93 94 95 96 97 98 99 100 101 102 103 104 105 106 107 108 109 110 111 112 113 114 115 116 117 118 119 120 121 122 123 124 125 126 127 128 129 130 131 132 133 134 135 136 137 138 139 140 141 142 143 144 145 146 147 148 149 150 151 152 153 154 155 156 157 158 159 160 161 162 163 164 165 166 167 168 169 170 171 172 173 174 175 176 177 178 179 180 181 182 183 184 185 186 187 188 189 
                </DataArray>
                <DataArray type="Int64" Name="offsets" format="ascii">
48 93 143 190 
                </DataArray>
            </Polys>
        </Piece>
    </PolyData>
</VTKFile>
