<VTKFile type="PolyData" version="0.1" byte_order="LittleEndian">
    <PolyData>
        <Piece NumberOfPoints="1694" NumberOfPolys="39">
            <CellData>
                <DataArray type="Float64" Name="area" format="ascii">
2.13439 2.74947 2.93417 1.70805 2.0948 2.56574 2.69114 2.61825 2.95004 2.03617 2.88812 2.66959 2.3068 3.08578 3.4891 1.21034 2.03222 2.03819 1.90517 1.5512 1.58942 2.71328 2.59777 2.38196 1.78125 2.34429 2.05495 2.59652 2.13986 2.23223 1.99159 1.75906 1.77094 2.29355 1.85588 1.72409 1.44238 1.55338 1.46347 
                </DataArray>
                <DataArray type="Float64" Name="c1" format="ascii">
0.0511439 0.0193402 0.0222178 0.0216967 0.0217599 0.0119936 0.0286654 0.0415207 0.0137736 0.0275942 0.0124536 0.0167399 0.0148604 0.0315556 0.0402612 0.0307259 0.014615 0.0353187 0.019504 0.0267297 0.0116855 0.0141649 0.0173764 0.022834 0.0179049 0.0149843 0.0427543 0.0396522 0.016858 0.0198126 0.0213437 0.0251372 0.017206 0.0377851 0.0287611 0.0161669 0.0131657 0.0310375 0.0348662 
                </DataArray>
                <DataArray type="Float64" Name="c2" format="ascii">
0.519384 0.622933 0.540359 0.635579 0.684935 0.833375 0.483116 0.445671 0.825272 0.510589 0.660888 0.799467 0.558129 0.593463 0.473861 0.471848 0.731103 0.528066 0.613774 0.55489 0.787964 0.675055 0.729268 0.627853 0.595553 0.810311 0.425123 0.482581 0.689386 0.505385 0.693765 0.564127 0.704426 0.53647 0.588022 0.578532 0.748911 0.510003 0.446998 
                </DataArray>
                <DataArray type="Float64" Name="grad_c1" NumberOfComponents="2" format="ascii">
0.00257003 -0.00119664 0.0025505 0.00232415 0.00213994 0.00384548 0.00324358 -0.00326567 0.0039707 -0.00142825 0.000882456 0.00072509 0.00205354 0.00470681 0.00223879 -0.00212828 0.00147454 -0.00110964 0.00101441 -0.00531426 0.000676083 0.00150153 0.00212002 0.00044799 0.000862343 0.00221415 0.00947235 0.000569124 -0.00112892 0.00511603 0.000683641 -0.00556526 0.00166238 0.00140529 0.00233995 -0.010883 0.00183319 -0.00326896 0.00411553 0.00459629 0.000836775 0.00114916 0.00114148 0.0016377 0.00243425 -0.00174283 0.00383051 0.00252097 0.00179601 0.0026148 0.00160558 0.000933414 0.00608542 -0.00652801 -0.00335312 -0.00699207 0.00181149 -0.00224932 0.00153404 0.00363207 0.00389575 0.000403061 0.00236309 -0.00509111 0.00225931 0.00151318 0.00644698 0.00939884 0.00580641 -0.00528486 0.00118499 0.00247915 0.00121666 0.0011238 0.00218388 0.00593128 0.00124564 -0.00549148 
                </DataArray>
                <DataArray type="Float64" Name="grad_c2" NumberOfComponents="2" format="ascii">
-0.0342908 0.00146601 -0.0503292 -0.0051715 -0.034398 -0.00295868 -0.0552455 0.0134696 -0.0718576 0.00506498 -0.0746464 -0.0315809 -0.0267608 -0.00580005 -0.0229513 0.000978776 -0.0644916 0.0030289 -0.0305462 0.016119 -0.0570448 -0.0219435 -0.07716 0.0135895 -0.0421725 -0.0183308 -0.0498931 0.00405105 -0.0252103 0.00157287 -0.0237269 0.00888167 -0.06078 -0.00229167 -0.0352705 0.00875505 -0.0483457 0.017956 -0.0331499 -0.0018605 -0.0663675 -0.0153015 -0.0628395 -0.021216 -0.0600028 0.00708375 -0.0609226 0.0073758 -0.0473364 -0.00696122 -0.0802445 0.0129898 -0.0193353 0.00418587 -0.0266773 0.00466765 -0.0583375 0.0172898 -0.02882 -0.00414077 -0.0685825 0.00803271 -0.0384104 0.0162669 -0.0643892 0.00736277 -0.0353699 0.00169368 -0.0498854 0.00949236 -0.0450702 -0.0145325 -0.0633751 -0.0266444 -0.0343265 -0.00279803 -0.0253098 0.00992384 
                </DataArray>
                <DataArray type="Float64" Name="D1" format="ascii">
20.1884 47.8887 46.4257 29.5543 23.66 26.9155 31.6639 27.4076 30.8932 41.7876 28.6995 27.0936 25.8601 46.5973 31.4408 35.0437 37.913 16.8386 22.4411 28.3868 31.9534 36.3592 34.0147 20.1184 48.0826 38.3651 47.2917 29.8961 38.9749 43.0421 26.8686 32.3324 29.6121 52.4272 42.8323 25.5713 28.1693 45.098 44.1968 
                </DataArray>
                <DataArray type="Float64" Name="D2" format="ascii">
28.1376 29.476 55.2662 32.7903 26.1502 20.7843 31.7025 33.9204 29.999 25.2094 41.1061 34.7848 33.2469 38.6467 34.7848 56.3213 22.3241 25.0052 21.7317 17.7694 45.6173 35.0981 35.203 30.2212 14.9015 18.5881 34.7508 28.0313 24.2088 26.0686 28.7328 30.8758 30.5008 53.0714 18.1999 22.0737 37.4859 35.7535 23.7409 
                </DataArray>
                <DataArray type="Float64" Name="k1" format="ascii">
0.910378 0.571072 1.14395 1.54432 0.926629 1.25016 0.575564 1.55852 0.945503 0.860941 0.791226 0.616893 1.05281 1.17647 0.817944 0.63907 0.482176 1.56031 0.91796 0.830993 0.79104 0.957837 0.807719 1.03161 1.08356 0.877557 1.01713 0.934678 0.868774 1.64607 0.737187 1.13232 0.856645 1.08628 0.597704 0.754089 0.758816 0.893221 0.690579 
                </DataArray>
                <DataArray type="Float64" Name="k2" format="ascii">
0.1 0.1 0.1 0.1 0.1 0.1 0.1 0.1 0.1 0.1 0.1 0.1 0.1 0.1 0.1 0.1 0.1 0.1 0.1 0.1 0.1 0.1 0.1 0.1 0.1 0.1 0.1 0.1 0.1 0.1 0.1 0.1 0.1 0.1 0.1 0.1 0.1 0.1 0.1 
                </DataArray>
                <DataArray type="Float64" Name="k3" format="ascii">
1 1 1 1 1 1 1 1 1 1 1 1 1 1 1 1 1 1 1 1 1 1 1 1 1 1 1 1 1 1 1 1 1 1 1 1 1 1 1 
                </DataArray>
                <DataArray type="Int64" Name="cell_type" format="ascii">
0 1 1 1 1 1 1 1 1 1 1 1 1 1 1 1 1 1 1 1 1 1 1 1 1 1 1 1 1 1 1 1 1 1 1 1 1 1 1 
                </DataArray>
                <DataArray type="Float64" Name="perimeter" format="ascii">
5.46906 6.3209 6.40857 4.92518 5.31942 5.82701 6.03385 5.90841 6.18029 5.17094 6.16872 5.9923 5.56315 6.58695 6.88446 4.37083 5.41267 5.24668 5.03634 4.56428 4.67501 6.31352 5.93374 5.65681 4.91089 5.63456 5.23059 5.91366 5.31342 5.42746 5.17754 4.90392 4.9158 5.62235 5.0078 4.89256 4.44699 4.57946 4.76799 
                </DataArray>
                <DataArray type="Float64" Name="neighbors" format="ascii">
5 7 7 6 5 3 4 4 1 4 3 2 3 6 6 2 6 5 3 5 3 7 4 5 4 3 2 7 3 3 4 5 4 5 5 5 4 5 3 
                </DataArray>
            </CellData>
            <Points>
                <DataArray type="Float64" Name="Points" NumberOfComponents="3" format="ascii">
-6.85126 1.50747 0 -6.8401 1.39583 0 -6.82858 1.28712 0 -6.75092 1.17244 0 -6.6457 1.12234 0 -6.54069 1.07439 0 -6.43613 1.02843 0 -6.32967 0.983097 0 -6.22257 0.939203 0 -6.11584 0.896461 0 -6.00838 0.853988 0 -5.90141 0.811416 0 -5.79677 0.769486 0 -5.69205 0.726109 0 -5.58685 0.679653 0 -5.48208 0.678231 0 -5.37433 0.69303 0 -5.27995 0.799313 0 -5.19206 0.909547 0 -5.11276 1.0222 0 -5.04037 1.14304 0 -4.97763 1.26876 0 -4.92263 1.3989 0 -4.97066 1.49638 0 -5.04414 1.57944 0 -5.11756 1.66241 0 -5.19064 1.74532 0 -5.2629 1.82801 0 -5.33415 1.91122 0 -5.43148 2.02543 0 -5.54873 2.10801 0 -5.67903 2.16862 0 -5.81683 2.17349 0 -5.95476 2.17726 0 -6.09172 2.18211 0 -6.22727 2.18808 0 -6.36229 2.19617 0 -6.49658 2.20717 0 -6.61705 2.14121 0 -6.75355 2.02554 0 -6.86307 1.88069 0 -6.86367 1.75739 0 -6.86231 1.63317 0 -7.6386 -1.167 0 -7.71115 -1.03369 0 -7.81781 -0.950505 0 -7.92209 -0.968952 0 -8.02806 -0.987539 0 -8.1346 -1.00466 0 -8.24328 -1.01951 0 -8.35238 -1.03149 0 -8.46245 -1.04179 0 -8.57004 -1.0506 0 -8.67575 -1.05839 0 -8.78618 -1.0652 0 -8.89703 -1.07148 0 -9.01206 -1.07969 0 -9.11444 -1.1798 0 -9.16534 -1.30843 0 -9.21613 -1.43003 0 -9.25224 -1.51354 0 -9.29247 -1.59235 0 -9.33281 -1.67251 0 -9.38004 -1.75431 0 -9.42845 -1.83375 0 -9.47327 -1.90748 0 -9.4773 -2.02326 0 -9.4699 -2.14006 0 -9.44041 -2.25623 0 -9.41157 -2.3751 0 -9.38338 -2.49236 0 -9.35507 -2.608 0 -9.28516 -2.68955 0 -9.20304 -2.76152 0 -9.03797 -2.79541 0 -8.92863 -2.81713 0 -8.81732 -2.83776 0 -8.67733 -2.77734 0 -8.57072 -2.68799 0 -8.46403 -2.60368 0 -8.35689 -2.52412 0 -8.24587 -2.44702 0 -8.12222 -2.37809 0 -8.03729 -2.33565 0 -7.95254 -2.29314 0 -7.77923 -2.22171 0 -7.60227 -2.16503 0 -7.51646 -2.09438 0 -7.48302 -2.00294 0 -7.45084 -1.91046 0 -7.41777 -1.81604 0 -7.38353 -1.72059 0 -7.3508 -1.62833 0 -7.45282 -1.48151 0 -7.54799 -1.33003 0 -7.46578 -1.9836 0 -7.50554 -2.09894 0 -7.45218 -2.23745 0 -7.36073 -2.35805 0 -7.27846 -2.48972 0 -7.20434 -2.62992 0 -7.14105 -2.77153 0 -7.08879 -2.91271 0 -7.04624 -3.05532 0 -6.96347 -3.18098 0 -6.86436 -3.29421 0 -6.7327 -3.37595 0 -6.60473 -3.46075 0 -6.47629 -3.54911 0 -6.33874 -3.54654 0 -6.20351 -3.52522 0 -6.07279 -3.48419 0 -5.97001 -3.36244 0 -5.86698 -3.24022 0 -5.76306 -3.11671 0 -5.66032 -2.99464 0 -5.56111 -2.87715 0 -5.46445 -2.76067 0 -5.41559 -2.59749 0 -5.46848 -2.45018 0 -5.50529 -2.34757 0 -5.54359 -2.24282 0 -5.58218 -2.14196 0 -5.62326 -2.03565 0 -5.66351 -1.93021 0 -5.70424 -1.82789 0 -5.84515 -1.76637 0 -5.98176 -1.69582 0 -6.11148 -1.62251 0 -6.23718 -1.54714 0 -6.30383 -1.50837 0 -6.39404 -1.4996 0 -6.52227 -1.53271 0 -6.65586 -1.56326 0 -6.79732 -1.5898 0 -6.9356 -1.60816 0 -7.06925 -1.62101 0 -7.20213 -1.62921 0 -7.3384 -1.62918 0 -7.37846 -1.7359 0 -7.41851 -1.84813 0 -8.61993 3.08483 0 -8.52867 3.02422 0 -8.41922 3.02941 0 -8.3122 3.05252 0 -8.22694 3.1304 0 -8.14039 3.20752 0 -8.05355 3.28355 0 -7.96607 3.35861 0 -7.8777 3.43276 0 -7.78841 3.5058 0 -7.69768 3.57781 0 -7.60532 3.64872 0 -7.51156 3.7183 0 -7.41694 3.78695 0 -7.36235 3.90268 0 -7.32746 4.02566 0 -7.33978 4.14502 0 -7.42621 4.29455 0 -7.5604 4.37285 0 -7.69456 4.45092 0 -7.82885 4.52911 0 -7.96325 4.60742 0 -8.10353 4.6258 0 -8.22085 4.57626 0 -8.33765 4.52531 0 -8.45444 4.47429 0 -8.57125 4.423 0 -8.68793 4.3712 0 -8.80451 4.31898 0 -8.88993 4.22103 0 -8.88628 4.10253 0 -8.87878 3.94049 0 -8.86928 3.77931 0 -8.85715 3.61823 0 -8.84295 3.457 0 -8.82637 3.29595 0 -8.76575 3.18407 0 -8.69277 3.1344 0 -10.0699 2.06273 0 -10.0206 1.97227 0 -9.95781 1.89016 0 -9.88313 1.81791 0 -9.77791 1.8145 0 -9.67271 1.80936 0 -9.56767 1.80285 0 -9.46341 1.79514 0 -9.36008 1.78624 0 -9.2577 1.77598 0 -9.15626 1.76416 0 -9.05523 1.75051 0 -8.95433 1.73484 0 -8.85349 1.71688 0 -8.75592 1.75351 0 -8.66443 1.80289 0 -8.58138 1.86438 0 -8.49454 1.98975 0 -8.41228 2.11774 0 -8.33402 2.24962 0 -8.26461 2.38397 0 -8.28008 2.51477 0 -8.32596 2.64363 0 -8.37074 2.77366 0 -8.44404 2.89635 0 -8.52919 3.01137 0 -8.63264 3.08142 0 -8.76251 3.16987 0 -8.89881 3.18946 0 -8.99244 3.16492 0 -9.08737 3.13984 0 -9.18274 3.11395 0 -9.27817 3.08802 0 -9.37355 3.06175 0 -9.46845 3.03522 0 -9.56265 3.0086 0 -9.65632 2.98165 0 -9.74962 2.95428 0 -9.84253 2.92728 0 -9.91322 2.86442 0 -9.97512 2.79333 0 -10.0275 2.71506 0 -10.0697 2.63084 0 -10.1043 2.53092 0 -10.1243 2.42759 0 -10.1292 2.32307 0 -10.1186 2.21958 0 -10.0991 2.13953 0 -11.7017 -4.2765 0 -11.5551 -4.30073 0 -11.406 -4.30193 0 -11.263 -4.28567 0 -11.1679 -4.17559 0 -11.0748 -4.06573 0 -11.0076 -3.95495 0 -10.9612 -3.82861 0 -10.9553 -3.6946 0 -10.9359 -3.56175 0 -10.9103 -3.43552 0 -10.8773 -3.30223 0 -10.8388 -3.17115 0 -10.7903 -3.03704 0 -10.801 -2.89954 0 -10.8863 -2.79304 0 -10.9707 -2.6851 0 -11.0389 -2.59378 0 -11.1062 -2.503 0 -11.173 -2.41269 0 -11.242 -2.32166 0 -11.367 -2.29729 0 -11.4969 -2.29225 0 -11.6249 -2.30525 0 -11.7448 -2.33142 0 -11.8562 -2.36793 0 -11.9619 -2.41769 0 -12.0631 -2.48556 0 -12.1576 -2.57287 0 -12.2417 -2.67384 0 -12.314 -2.78204 0 -12.3756 -2.89698 0 -12.4264 -3.01928 0 -12.4645 -3.14646 0 -12.4848 -3.27667 0 -12.4795 -3.42412 0 -12.4482 -3.56356 0 -12.4033 -3.69025 0 -12.3459 -3.8068 0 -12.2721 -3.91291 0 -12.1832 -4.00685 0 -12.0793 -4.09231 0 -11.9634 -4.17041 0 -11.837 -4.23338 0 -4.60808 -0.838827 0 -4.73249 -0.82718 0 -4.83569 -0.88515 0 -4.9324 -0.957941 0 -4.98752 -1.05687 0 -5.04789 -1.15992 0 -5.1209 -1.26065 0 -5.19494 -1.35734 0 -5.26846 -1.44595 0 -5.34994 -1.53028 0 -5.43085 -1.61478 0 -5.51513 -1.68856 0 -5.60273 -1.75874 0 -5.69126 -1.82926 0 -5.64363 -1.95438 0 -5.59487 -2.08159 0 -5.54528 -2.20971 0 -5.51 -2.305 0 -5.47463 -2.40348 0 -5.4387 -2.50366 0 -5.40325 -2.59843 0 -5.31643 -2.68391 0 -5.23756 -2.7059 0 -5.15726 -2.72776 0 -5.07722 -2.75172 0 -4.99709 -2.7762 0 -4.83777 -2.82551 0 -4.75614 -2.85112 0 -4.67392 -2.87539 0 -4.57614 -2.85311 0 -4.48054 -2.82148 0 -4.38669 -2.78099 0 -4.2958 -2.73211 0 -4.20955 -2.6747 0 -4.12845 -2.6087 0 -4.05414 -2.53531 0 -3.98903 -2.45589 0 -3.93353 -2.3719 0 -3.88665 -2.28494 0 -3.84848 -2.19517 0 -3.82013 -2.10136 0 -3.80132 -2.003 0 -3.79068 -1.90108 0 -3.78875 -1.79764 0 -3.79854 -1.69396 0 -3.82156 -1.59 0 -3.85562 -1.48683 0 -3.89768 -1.38799 0 -3.94812 -1.29588 0 -4.04757 -1.16102 0 -4.16625 -1.03617 0 -4.30005 -0.934305 0 -4.45371 -0.856504 0 -2.85357 0.66619 0 -2.7606 0.716101 0 -2.61405 0.823073 0 -2.48782 0.952826 0 -2.38491 1.1015 0 -2.30797 1.26527 0 -2.25936 1.44036 0 -2.31849 1.55024 0 -2.38001 1.65912 0 -2.4418 1.7679 0 -2.50391 1.87681 0 -2.56621 1.98566 0 -2.6288 2.09467 0 -2.6915 2.20353 0 -2.75425 2.3121 0 -2.81716 2.42049 0 -2.93191 2.48564 0 -3.04562 2.48421 0 -3.19046 2.48023 0 -3.33457 2.4729 0 -3.47755 2.4616 0 -3.61962 2.44589 0 -3.75783 2.34009 0 -3.83917 2.18709 0 -3.92203 2.03436 0 -3.97425 1.939 0 -4.02929 1.84461 0 -4.08539 1.75048 0 -4.14167 1.65678 0 -4.19717 1.56318 0 -4.21382 1.44695 0 -4.12524 1.31467 0 -4.03457 1.18562 0 -3.96463 1.09673 0 -3.89072 1.01077 0 -3.81252 0.927528 0 -3.72984 0.847641 0 -3.64313 0.771391 0 -3.55291 0.698229 0 -3.46012 0.62775 0 -3.36338 0.561061 0 -3.25877 0.562103 0 -3.1545 0.572822 0 -3.05148 0.593753 0 -2.95086 0.62533 0 -11.0675 3.21158 0 -10.9123 3.2602 0 -10.7672 3.33386 0 -10.6363 3.4306 0 -10.6112 3.54848 0 -10.5873 3.66686 0 -10.5627 3.78505 0 -10.5374 3.90309 0 -10.5114 4.02111 0 -10.4848 4.13924 0 -10.4574 4.25748 0 -10.4293 4.37592 0 -10.4003 4.49493 0 -10.3723 4.61437 0 -10.4526 4.75477 0 -10.5552 4.87974 0 -10.6757 4.98834 0 -10.7598 5.04388 0 -10.8481 5.09277 0 -10.9433 5.1268 0 -11.0386 5.15907 0 -11.1818 5.18139 0 -11.3266 5.1856 0 -11.4708 5.16635 0 -11.6109 5.12782 0 -11.7444 5.06859 0 -11.8679 4.98994 0 -11.9789 4.89514 0 -12.0753 4.78568 0 -12.1546 4.66324 0 -12.2153 4.53046 0 -12.2558 4.39029 0 -12.2754 4.24583 0 -12.2738 4.10025 0 -12.2512 3.95658 0 -12.2079 3.81775 0 -12.1449 3.68673 0 -12.0636 3.56632 0 -11.9659 3.459 0 -11.8535 3.36709 0 -11.7288 3.29264 0 -11.5947 3.23715 0 -11.454 3.20185 0 -11.3251 3.18814 0 -11.1955 3.19148 0 -5.28929 4.98279 0 -5.41476 4.94122 0 -5.53341 4.883 0 -5.64269 4.80924 0 -5.74076 4.72119 0 -5.74283 4.62875 0 -5.74423 4.53604 0 -5.74586 4.44313 0 -5.74781 4.35052 0 -5.75017 4.2583 0 -5.75305 4.16661 0 -5.75619 4.07532 0 -5.75954 3.98421 0 -5.76254 3.89324 0 -5.67803 3.80316 0 -5.58173 3.74509 0 -5.4849 3.68687 0 -5.34664 3.59962 0 -5.21029 3.50663 0 -5.11051 3.47212 0 -5.00843 3.44752 0 -4.90424 3.46667 0 -4.80068 3.48443 0 -4.69698 3.50121 0 -4.5931 3.5177 0 -4.49082 3.53873 0 -4.39348 3.57846 0 -4.32447 3.71572 0 -4.28396 3.79801 0 -4.24442 3.88113 0 -4.20562 3.96479 0 -4.16761 4.04878 0 -4.13036 4.133 0 -4.09471 4.21792 0 -4.12134 4.32852 0 -4.16117 4.4355 0 -4.24327 4.5844 0 -4.35007 4.71692 0 -4.47858 4.82874 0 -4.62477 4.91637 0 -4.78414 4.97696 0 -4.95157 5.0086 0 -5.12174 5.0106 0 -7.48794 -4.78227 0 -7.58626 -4.74418 0 -7.74779 -4.67476 0 -7.90793 -4.59937 0 -8.08751 -4.56607 0 -8.20173 -4.6207 0 -8.31128 -4.67338 0 -8.41918 -4.72261 0 -8.52768 -4.77129 0 -8.63218 -4.81744 0 -8.73661 -4.86401 0 -8.84525 -4.90865 0 -8.95236 -4.94858 0 -9.06107 -4.98809 0 -9.16545 -5.02803 0 -9.21223 -5.1667 0 -9.23437 -5.30869 0 -9.23223 -5.45275 0 -9.21696 -5.55881 0 -9.19314 -5.66387 0 -9.16045 -5.7684 0 -9.11543 -5.87015 0 -9.05751 -5.96661 0 -8.98909 -6.05618 0 -8.8822 -6.15938 0 -8.75815 -6.24169 0 -8.6247 -6.30694 0 -8.48274 -6.35385 0 -8.33255 -6.3801 0 -8.17823 -6.38511 0 -8.02319 -6.36934 0 -7.8714 -6.33395 0 -7.72694 -6.28032 0 -7.59138 -6.20799 0 -7.46759 -6.1142 0 -7.35977 -6.00134 0 -7.26965 -5.87598 0 -7.19799 -5.74474 0 -7.13718 -5.58175 0 -7.10473 -5.41478 0 -7.15808 -5.26376 0 -7.20898 -5.11304 0 -7.25991 -4.96314 0 -7.32089 -4.88672 0 -7.3885 -4.8161 0 -11.897 0.610579 0 -11.8641 0.438551 0 -11.8006 0.276166 0 -11.7086 0.128614 0 -11.5837 0.105548 0 -11.4584 0.0832008 0 -11.3329 0.0610767 0 -11.2074 0.0391434 0 -11.0822 0.0175126 0 -10.9574 -0.0038484 0 -10.8332 -0.0248982 0 -10.7099 -0.0456093 0 -10.5873 -0.0661781 0 -10.4645 -0.0855148 0 -10.3089 -0.0187657 0 -10.1672 0.0745129 0 -10.0437 0.191693 0 -9.97609 0.277698 0 -9.91922 0.370944 0 -9.98609 0.543209 0 -10.0486 0.716666 0 -10.0806 0.817867 0 -10.1126 0.919445 0 -10.1423 1.02256 0 -10.1718 1.12627 0 -10.2009 1.23057 0 -10.2286 1.33537 0 -10.2551 1.44088 0 -10.3733 1.52878 0 -10.5031 1.59831 0 -10.6416 1.64822 0 -10.7858 1.67768 0 -10.9328 1.68569 0 -11.0794 1.67189 0 -11.2226 1.63656 0 -11.359 1.58057 0 -11.4856 1.50512 0 -11.5993 1.41191 0 -11.6974 1.30312 0 -11.7957 1.14787 0 -11.8631 0.976818 0 -11.8974 0.795503 0 -5.39662 -4.99467 0 -5.36928 -4.85768 0 -5.3608 -4.71764 0 -5.37115 -4.57725 0 -5.44353 -4.5124 0 -5.5177 -4.44915 0 -5.59184 -4.38413 0 -5.66716 -4.3181 0 -5.74282 -4.25303 0 -5.81768 -4.18843 0 -5.8926 -4.12342 0 -5.96717 -4.05824 0 -6.04171 -3.993 0 -6.15936 -3.9991 0 -6.27191 -4.02006 0 -6.3777 -4.05746 0 -6.47469 -4.11071 0 -6.53819 -4.18726 0 -6.60342 -4.26284 0 -6.6716 -4.3373 0 -6.74367 -4.40959 0 -6.81955 -4.4794 0 -6.89863 -4.54669 0 -6.97804 -4.61156 0 -7.05741 -4.67377 0 -7.13798 -4.73386 0 -7.22007 -4.79319 0 -7.24762 -4.96519 0 -7.21723 -5.05766 0 -7.18569 -5.15055 0 -7.15434 -5.24387 0 -7.12212 -5.33588 0 -7.09312 -5.41389 0 -7.0251 -5.48102 0 -6.87272 -5.59415 0 -6.70257 -5.6783 0 -6.52149 -5.72776 0 -6.33559 -5.74171 0 -6.15204 -5.7196 0 -6.00407 -5.67621 0 -5.86361 -5.60954 0 -5.73488 -5.51896 0 -5.62026 -5.40855 0 -5.52384 -5.28205 0 -5.44958 -5.14291 0 -7.85982 2.2892 0 -7.96067 2.31584 0 -8.11787 2.35924 0 -8.25548 2.37257 0 -8.32888 2.23855 0 -8.4058 2.10922 0 -8.48831 1.98112 0 -8.57611 1.85449 0 -8.63719 1.69869 0 -8.67787 1.53659 0 -8.65408 1.37216 0 -8.63786 1.20594 0 -8.62826 1.03832 0 -8.62514 0.872208 0 -8.62928 0.708044 0 -8.53613 0.579665 0 -8.40912 0.512501 0 -8.28486 0.440617 0 -8.1414 0.353105 0 -7.99809 0.259253 0 -7.88712 0.182156 0 -7.77365 0.0948778 0 -7.67073 0.117645 0 -7.56545 0.151682 0 -7.46864 0.199673 0 -7.37473 0.264283 0 -7.33819 0.371806 0 -7.29444 0.478973 0 -7.24756 0.579386 0 -7.19686 0.677074 0 -7.14091 0.77558 0 -7.08064 0.872133 0 -7.01358 0.966466 0 -6.939 1.06051 0 -6.86317 1.15399 0 -6.83972 1.29859 0 -6.85725 1.46315 0 -6.87222 1.6317 0 -6.87358 1.75228 0 -6.87415 1.87148 0 -6.92966 1.96385 0 -6.99391 2.0483 0 -7.06481 2.12573 0 -7.14016 2.19599 0 -7.244 2.19679 0 -7.34734 2.20338 0 -7.45043 2.21336 0 -7.55306 2.22627 0 -7.65571 2.24236 0 -7.75866 2.26287 0 -4.22036 1.43587 0 -4.33367 1.47086 0 -4.42949 1.45568 0 -4.52518 1.44448 0 -4.71587 1.42759 0 -4.81157 1.4221 0 -4.91152 1.39213 0 -4.96986 1.26184 0 -5.03193 1.1377 0 -5.1048 1.01616 0 -5.18526 0.901968 0 -5.2746 0.790121 0 -5.37209 0.679037 0 -5.40424 0.587352 0 -5.43127 0.494409 0 -5.43028 0.320441 0 -5.43682 0.154522 0 -5.45167 -0.0159792 0 -5.47472 -0.177804 0 -5.43546 -0.260073 0 -5.3681 -0.306677 0 -5.29355 -0.357831 0 -5.22486 -0.41914 0 -5.15284 -0.483728 0 -5.08141 -0.559066 0 -5.01396 -0.632789 0 -4.95013 -0.702811 0 -4.84641 -0.765047 0 -4.73916 -0.816252 0 -4.64737 -0.824524 0 -4.55263 -0.835038 0 -4.456 -0.845789 0 -4.36496 -0.83048 0 -4.2752 -0.80829 0 -4.18917 -0.781269 0 -4.10472 -0.749142 0 -4.02111 -0.706861 0 -3.9433 -0.65543 0 -3.87016 -0.599539 0 -3.79694 -0.53936 0 -3.72648 -0.472592 0 -3.64951 -0.381564 0 -3.58247 -0.287848 0 -3.52391 -0.19315 0 -3.47353 -0.0913995 0 -3.43482 0.0159058 0 -3.407 0.124313 0 -3.38789 0.233039 0 -3.3761 0.341347 0 -3.37287 0.450135 0 -3.37883 0.557872 0 -3.47171 0.623816 0 -3.56209 0.692746 0 -3.65048 0.764556 0 -3.7358 0.839583 0 -3.81707 0.917894 0 -3.89365 0.999013 0 -3.96584 1.08236 0 -4.03391 1.16767 0 -4.09668 1.25602 0 -4.15856 1.34558 0 -3.96583 3.01141 0 -3.89152 3.04651 0 -3.81704 3.11731 0 -3.74296 3.19236 0 -3.66891 3.26759 0 -3.59486 3.34282 0 -3.52082 3.41806 0 -3.44677 3.49329 0 -3.37272 3.56852 0 -3.29868 3.64375 0 -3.22463 3.71899 0 -3.15058 3.79422 0 -3.07653 3.86945 0 -3.00249 3.94469 0 -2.92874 4.01996 0 -2.8622 4.09565 0 -2.86099 4.17034 0 -2.92003 4.25998 0 -3.05486 4.32532 0 -3.20231 4.37026 0 -3.35462 4.39484 0 -3.50878 4.39876 0 -3.66171 4.38199 0 -3.81046 4.34503 0 -3.95267 4.28842 0 -4.08454 4.21177 0 -4.12043 4.13083 0 -4.15593 4.05047 0 -4.19213 3.97029 0 -4.22905 3.89042 0 -4.26653 3.81107 0 -4.30487 3.73263 0 -4.34398 3.65468 0 -4.38129 3.57554 0 -4.35128 3.47433 0 -4.28431 3.39174 0 -4.21795 3.3097 0 -4.15207 3.22733 0 -4.08866 3.14456 0 -4.02666 3.06331 0 -9.44925 -2.26186 0 -9.4795 -2.14366 0 -9.53264 -2.03627 0 -9.60007 -1.93979 0 -9.70751 -1.90207 0 -9.81393 -1.86322 0 -9.92194 -1.82205 0 -10.0302 -1.77927 0 -10.1364 -1.73562 0 -10.24 -1.6901 0 -10.3421 -1.64282 0 -10.4427 -1.59339 0 -10.5411 -1.54231 0 -10.638 -1.48977 0 -10.7616 -1.48958 0 -10.8843 -1.55154 0 -11.0074 -1.61576 0 -11.1213 -1.76952 0 -11.199 -1.94302 0 -11.2364 -2.12567 0 -11.2366 -2.30976 0 -11.1551 -2.42021 0 -11.0952 -2.5011 0 -11.037 -2.5797 0 -10.9785 -2.65798 0 -10.9174 -2.73708 0 -10.8545 -2.81681 0 -10.7909 -2.89446 0 -10.666 -2.9369 0 -10.5418 -2.92183 0 -10.4133 -2.90714 0 -10.2805 -2.90484 0 -10.144 -2.91323 0 -10.0077 -2.92833 0 -9.87387 -2.95173 0 -9.7426 -2.97656 0 -9.61268 -3.00115 0 -9.52814 -2.92485 0 -9.44389 -2.84651 0 -9.39442 -2.73506 0 -9.36333 -2.61761 0 -9.40605 -2.44011 0 -5.87275 2.18494 0 -5.67828 2.1797 0 -5.585 2.23672 0 -5.50399 2.31045 0 -5.4679 2.41278 0 -5.43197 2.51518 0 -5.39611 2.61716 0 -5.36039 2.71857 0 -5.32467 2.81972 0 -5.28881 2.92116 0 -5.25282 3.02292 0 -5.21671 3.12459 0 -5.1806 3.22577 0 -5.14423 3.32622 0 -5.22185 3.50255 0 -5.37077 3.60324 0 -5.5243 3.69911 0 -5.68012 3.792 0 -5.85486 3.81057 0 -6.02276 3.74184 0 -6.19028 3.67225 0 -6.35259 3.59104 0 -6.51278 3.50812 0 -6.67021 3.42275 0 -6.71602 3.32487 0 -6.74773 3.22189 0 -6.75227 3.12255 0 -6.75684 3.02332 0 -6.76303 2.92385 0 -6.76923 2.824 0 -6.7796 2.65483 0 -6.72269 2.4882 0 -6.62774 2.33943 0 -6.50284 2.2185 0 -6.37715 2.2073 0 -6.253 2.1995 0 -6.1272 2.19359 0 -5.99979 2.18877 0 -7.5672 6.00643 0 -7.70519 5.97515 0 -7.83579 5.92102 0 -7.95542 5.84583 0 -8.06049 5.75191 0 -8.06078 5.64818 0 -8.06001 5.54491 0 -8.05899 5.44198 0 -8.05766 5.33912 0 -8.05588 5.23632 0 -8.05357 5.13345 0 -8.05069 5.03036 0 -8.04736 4.92717 0 -8.04348 4.82423 0 -8.03782 4.7219 0 -7.96457 4.6197 0 -7.87792 4.56921 0 -7.76389 4.50279 0 -7.65008 4.43654 0 -7.53635 4.37035 0 -7.42187 4.30527 0 -7.27077 4.33306 0 -7.16375 4.43454 0 -7.03159 4.56138 0 -6.90008 4.68973 0 -6.77046 4.82064 0 -6.64469 4.95331 0 -6.62133 5.06642 0 -6.61481 5.18071 0 -6.62391 5.29556 0 -6.64892 5.4086 0 -6.68946 5.51722 0 -6.74449 5.61945 0 -6.81271 5.71361 0 -6.89312 5.79714 0 -7.04024 5.90454 0 -7.20712 5.97709 0 -7.38557 6.01166 0 -6.40147 -1.49035 0 -6.34443 -1.34709 0 -6.34087 -1.2044 0 -6.33749 -1.0676 0 -6.33262 -0.92984 0 -6.32734 -0.800052 0 -6.32207 -0.662602 0 -6.37472 -0.587289 0 -6.43912 -0.519203 0 -6.52732 -0.480461 0 -6.61525 -0.438936 0 -6.7096 -0.401174 0 -6.7962 -0.365714 0 -6.87957 -0.329675 0 -6.96518 -0.293823 0 -7.05165 -0.258489 0 -7.133 -0.227054 0 -7.32031 -0.26381 0 -7.48677 -0.341596 0 -7.62548 -0.459444 0 -7.65295 -0.557918 0 -7.67989 -0.654974 0 -7.72403 -0.820325 0 -7.72192 -0.921252 0 -7.70628 -1.02191 0 -7.62199 -1.17656 0 -7.53705 -1.32891 0 -7.44431 -1.47637 0 -7.34506 -1.61747 0 -7.22075 -1.6194 0 -7.09828 -1.6129 0 -6.97709 -1.60224 0 -6.85625 -1.58771 0 -6.74234 -1.56945 0 -6.6286 -1.54689 0 -6.5143 -1.52046 0 -9.70436 -4.47232 0 -9.73579 -4.38483 0 -9.76279 -4.30488 0 -9.84575 -4.24459 0 -9.93742 -4.19436 0 -10.046 -4.192 0 -10.1522 -4.18044 0 -10.2549 -4.16033 0 -10.3648 -4.14032 0 -10.4682 -4.12037 0 -10.5656 -4.09459 0 -10.6718 -4.06314 0 -10.7644 -4.03297 0 -10.8644 -3.99693 0 -10.9634 -4.02483 0 -11.0602 -4.06371 0 -11.1182 -4.1325 0 -11.1915 -4.21841 0 -11.2602 -4.2995 0 -11.2674 -4.38959 0 -11.2667 -4.48191 0 -11.2334 -4.66102 0 -11.1608 -4.83566 0 -11.0588 -4.98688 0 -10.9306 -5.10878 0 -10.7704 -5.21198 0 -10.6459 -5.2569 0 -10.5146 -5.28178 0 -10.3763 -5.28932 0 -10.2382 -5.27245 0 -10.1037 -5.23883 0 -9.97677 -5.18981 0 -9.85641 -5.12178 0 -9.75165 -5.03496 0 -9.66554 -4.92929 0 -9.60104 -4.81222 0 -9.6483 -4.63751 0 -9.62043 -4.70051 0 -9.5911 -4.80354 0 -9.53176 -4.848 0 -9.46391 -4.89073 0 -9.32305 -4.96445 0 -9.25016 -4.995 0 -9.17449 -5.01852 0 -9.06915 -4.98045 0 -8.9609 -4.9411 0 -8.85164 -4.90043 0 -8.74212 -4.85552 0 -8.63405 -4.80736 0 -8.53065 -4.7617 0 -8.42612 -4.7148 0 -8.31841 -4.66571 0 -8.21064 -4.61396 0 -8.09877 -4.55855 0 -8.05054 -4.42963 0 -8.06819 -4.29232 0 -8.08065 -4.15572 0 -8.08933 -3.98428 0 -8.09225 -3.89896 0 -8.13389 -3.80902 0 -8.24395 -3.70694 0 -8.35075 -3.59395 0 -8.44636 -3.47642 0 -8.52935 -3.35179 0 -8.58497 -3.25601 0 -8.63552 -3.15612 0 -8.68076 -3.05348 0 -8.72371 -2.95059 0 -8.82255 -2.84734 0 -8.96271 -2.82105 0 -9.08139 -2.7966 0 -9.20091 -2.77364 0 -9.31836 -2.80805 0 -9.43505 -2.85361 0 -9.52105 -2.93188 0 -9.60422 -3.00879 0 -9.59647 -3.10766 0 -9.58626 -3.20742 0 -9.59053 -3.3041 0 -9.595 -3.40175 0 -9.60528 -3.49556 0 -9.61591 -3.59218 0 -9.63491 -3.69058 0 -9.65549 -3.79212 0 -9.68532 -3.89434 0 -9.71884 -3.99524 0 -9.7552 -4.09083 0 -9.75927 -4.2011 0 -9.75158 -4.30377 0 -9.71825 -4.40419 0 -9.68336 -4.50202 0 -9.64735 -4.60508 0 -9.65858 4.81603 0 -9.75894 4.82609 0 -9.92119 4.8084 0 -10.0788 4.76729 0 -10.2269 4.70093 0 -10.3611 4.60963 0 -10.3941 4.4786 0 -10.4258 4.34771 0 -10.4565 4.21728 0 -10.4864 4.08693 0 -10.5155 3.9564 0 -10.5439 3.82553 0 -10.5714 3.69439 0 -10.5982 3.56307 0 -10.6241 3.4317 0 -10.5418 3.29774 0 -10.4377 3.18039 0 -10.3153 3.08329 0 -10.2072 3.02237 0 -10.0922 2.97708 0 -9.97251 2.94792 0 -9.85046 2.93544 0 -9.74793 2.96515 0 -9.64553 2.99522 0 -9.54263 3.02465 0 -9.43918 3.05378 0 -9.33549 3.08288 0 -9.23146 3.11109 0 -9.06985 3.15461 0 -8.90843 3.19823 0 -8.83696 3.30314 0 -8.85578 3.48736 0 -8.87188 3.67135 0 -8.88418 3.85596 0 -8.89371 4.04095 0 -8.90154 4.22624 0 -8.96001 4.32492 0 -9.04631 4.39099 0 -9.13255 4.45695 0 -9.2187 4.52359 0 -9.30481 4.59036 0 -9.38887 4.66029 0 -9.47359 4.73066 0 -9.55907 4.80101 0 -9.27 -0.748313 0 -9.19707 -0.853346 0 -9.13207 -0.970849 0 -9.00637 -1.06775 0 -8.88946 -1.06107 0 -8.77286 -1.05443 0 -8.65247 -1.04675 0 -8.52887 -1.03729 0 -8.40571 -1.02654 0 -8.28604 -1.01429 0 -8.16753 -0.999193 0 -8.05014 -0.981048 0 -7.93309 -0.960815 0 -7.81771 -0.938426 0 -7.73001 -0.8049 0 -7.68237 -0.626696 0 -7.63408 -0.450477 0 -7.64582 -0.313411 0 -7.67363 -0.177327 0 -7.71575 -0.0455511 0 -7.77631 0.0836913 0 -7.90727 0.184126 0 -8.04795 0.280168 0 -8.19472 0.374176 0 -8.34353 0.463191 0 -8.44105 0.51818 0 -8.54022 0.569013 0 -8.6635 0.562552 0 -8.78457 0.536002 0 -8.88825 0.479847 0 -8.99191 0.426317 0 -9.09758 0.374255 0 -9.20532 0.323758 0 -9.29782 0.281991 0 -9.39022 0.241503 0 -9.44898 0.1576 0 -9.49638 0.0665742 0 -9.53204 -0.0296959 0 -9.55459 -0.12887 0 -9.56548 -0.227764 0 -9.57098 -0.330317 0 -9.47272 -0.462578 0 -9.37105 -0.596517 0 -8.21992 -3.71574 0 -8.13325 -3.7962 0 -8.0256 -3.81201 0 -7.93783 -3.7757 0 -7.85491 -3.73751 0 -7.77175 -3.69685 0 -7.68938 -3.65521 0 -7.61002 -3.61322 0 -7.53079 -3.56862 0 -7.45518 -3.52306 0 -7.38165 -3.47606 0 -7.30812 -3.42687 0 -7.23555 -3.37644 0 -7.16418 -3.32428 0 -7.11026 -3.24377 0 -7.07378 -3.155 0 -7.05594 -3.06 0 -7.09195 -2.93649 0 -7.13573 -2.81403 0 -7.18602 -2.69479 0 -7.24364 -2.57639 0 -7.3078 -2.46116 0 -7.37811 -2.35134 0 -7.46242 -2.24113 0 -7.60375 -2.1775 0 -7.77242 -2.22985 0 -7.93588 -2.29685 0 -8.09498 -2.37538 0 -8.24714 -2.45982 0 -8.39233 -2.56254 0 -8.52952 -2.66784 0 -8.66542 -2.78046 0 -8.71137 -2.95328 0 -8.67258 -3.04731 0 -8.63075 -3.14243 0 -8.58427 -3.23553 0 -8.53429 -3.32367 0 -8.48005 -3.40811 0 -8.42326 -3.4893 0 -8.35904 -3.56816 0 -8.29078 -3.64303 0 -10.3522 -0.292161 0 -10.4046 -0.187674 0 -10.4735 -0.0951914 0 -10.585 -0.0766398 0 -10.6962 -0.0579997 0 -10.8076 -0.0393159 0 -10.9196 -0.0203809 0 -11.032 -0.00120819 0 -11.1448 0.0181907 0 -11.2582 0.0378744 0 -11.3716 0.0577635 0 -11.4848 0.0777595 0 -11.5974 0.0979184 0 -11.7097 0.117028 0 -11.8312 0.0209258 0 -11.9353 -0.0950393 0 -12.0197 -0.228335 0 -12.0842 -0.383316 0 -12.1175 -0.528944 0 -12.1268 -0.677911 0 -12.1119 -0.825697 0 -12.0737 -0.968689 0 -12.0134 -1.10433 0 -11.9325 -1.22984 0 -11.8661 -1.30897 0 -11.7922 -1.38079 0 -11.7112 -1.44435 0 -11.6234 -1.49899 0 -11.5294 -1.54416 0 -11.4305 -1.57916 0 -11.3283 -1.60324 0 -11.2242 -1.616 0 -11.1192 -1.61725 0 -11.0154 -1.60792 0 -10.845 -1.52009 0 -10.7615 -1.47738 0 -10.6862 -1.39478 0 -10.6386 -1.23183 0 -10.5856 -1.071 0 -10.5265 -0.911043 0 -10.4611 -0.75155 0 -10.3899 -0.593449 0 -10.3122 -0.43746 0 -2.7415 2.65154 0 -2.80335 2.55787 0 -2.80893 2.42847 0 -2.75365 2.33094 0 -2.69749 2.23383 0 -2.64107 2.13596 0 -2.5848 2.03808 0 -2.52852 1.93989 0 -2.47247 1.84182 0 -2.41674 1.744 0 -2.36126 1.64622 0 -2.3061 1.54845 0 -2.25074 1.45075 0 -2.09382 1.44106 0 -1.93719 1.45922 0 -1.78641 1.50475 0 -1.64585 1.5761 0 -1.5003 1.68967 0 -1.38106 1.83065 0 -1.2927 1.99322 0 -1.23886 2.17074 0 -1.22247 2.36249 0 -1.24695 2.55312 0 -1.31172 2.73402 0 -1.41313 2.8975 0 -1.54707 3.03603 0 -1.62458 3.09404 0 -1.70784 3.14348 0 -1.80162 3.1859 0 -1.89955 3.21722 0 -2.00025 3.23712 0 -2.10243 3.24549 0 -2.2048 3.2422 0 -2.30531 3.22698 0 -2.39936 3.11718 0 -2.48929 3.00464 0 -2.57613 2.88951 0 -2.65993 2.7716 0 -4.7462 3.48322 0 -4.87855 3.46106 0 -5.01019 3.43599 0 -5.13144 3.33035 0 -5.17326 3.21683 0 -5.214 3.1025 0 -5.25451 2.98832 0 -5.29476 2.87447 0 -5.33486 2.76098 0 -5.37493 2.64733 0 -5.41523 2.53281 0 -5.45566 2.41766 0 -5.49534 2.30268 0 -5.4758 2.16604 0 -5.42857 2.03733 0 -5.34784 1.94259 0 -5.26669 1.84764 0 -5.16551 1.73176 0 -5.06299 1.61569 0 -4.9605 1.50026 0 -4.80799 1.43259 0 -4.68847 1.43993 0 -4.56792 1.45061 0 -4.44729 1.46352 0 -4.32825 1.4819 0 -4.20511 1.57113 0 -4.12831 1.69823 0 -4.05189 1.82598 0 -3.97682 1.95486 0 -3.90513 2.08624 0 -3.83443 2.21705 0 -3.7657 2.34807 0 -3.74468 2.50362 0 -3.78564 2.59671 0 -3.82852 2.68834 0 -3.8714 2.78024 0 -3.89