<VTKFile type="PolyData" version="0.1" byte_order="LittleEndian">
    <PolyData>
        <Piece NumberOfPoints="335" NumberOfPolys="8">
            <CellData>
                <DataArray type="Float64" Name="area" format="ascii">
1.9432 2.23169 2.4296 2.2998 2.17349 2.22202 2.09307 2.15707 
                </DataArray>
                <DataArray type="Float64" Name="c1" format="ascii">
0.0657061 0.0337825 0.0340226 0.035979 0.0417732 0.0242194 0.0517278 0.0497691 
                </DataArray>
                <DataArray type="Float64" Name="c2" format="ascii">
0.363859 0.440209 0.391871 0.428915 0.42644 0.460939 0.363762 0.367097 
                </DataArray>
                <DataArray type="Float64" Name="grad_c1" NumberOfComponents="2" format="ascii">
0.00994486 -0.00118721 0.00875095 0.0048935 0.00531362 0.00841658 0.00900878 -0.00667004 0.014442 -0.000684426 0.00477076 0.00441501 0.00862657 0.0135701 0.00728769 -0.0152242 
                </DataArray>
                <DataArray type="Float64" Name="grad_c2" NumberOfComponents="2" format="ascii">
-0.0358877 0.00159818 -0.0467129 -0.000144719 -0.0386404 -0.00430081 -0.0435287 0.0032972 -0.046019 0.00203834 -0.0470574 -0.00252307 -0.0354673 -0.00180044 -0.0358635 0.00595271 
                </DataArray>
                <DataArray type="Float64" Name="D1" format="ascii">
20.1884 47.8887 46.4257 29.5543 23.66 26.9155 31.6639 27.4076 
                </DataArray>
                <DataArray type="Float64" Name="D2" format="ascii">
28.1376 29.476 55.2662 32.7903 26.1502 20.7843 31.7025 33.9204 
                </DataArray>
                <DataArray type="Float64" Name="k1" format="ascii">
0.910378 0.571072 1.14395 1.54432 0.926629 1.25016 0.575564 1.55852 
                </DataArray>
                <DataArray type="Float64" Name="k2" format="ascii">
0.1 0.1 0.1 0.1 0.1 0.1 0.1 0.1 
                </DataArray>
                <DataArray type="Float64" Name="k3" format="ascii">
1 1 1 1 1 1 1 1 
                </DataArray>
                <DataArray type="Int64" Name="cell_type" format="ascii">
0 1 1 1 1 1 1 1 
                </DataArray>
                <DataArray type="Float64" Name="perimeter" format="ascii">
5.12814 5.50071 5.72401 5.48108 5.44155 5.3861 5.36096 5.31933 
                </DataArray>
                <DataArray type="Float64" Name="neighbors" format="ascii">
3 4 3 2 3 2 3 2 
                </DataArray>
            </CellData>
            <Points>
                <DataArray type="Float64" Name="Points" NumberOfComponents="3" format="ascii">
-1.39812 0.661758 0 -1.41717 0.799394 0 -1.45968 0.932262 0 -1.52355 1.05607 0 -1.60787 1.16777 0 -1.70875 1.18855 0 -1.81054 1.20652 0 -1.91196 1.22344 0 -2.01355 1.23964 0 -2.11465 1.25491 0 -2.21589 1.26926 0 -2.31755 1.28291 0 -2.42007 1.29608 0 -2.52277 1.30816 0 -2.62639 1.31832 0 -2.73095 1.26666 0 -2.82526 1.1981 0 -2.92981 1.08316 0 -2.93179 0.917154 0 -2.93433 0.750352 0 -2.93692 0.583228 0 -2.93759 0.417375 0 -2.93995 0.250918 0 -2.93989 0.0835133 0 -2.85659 -0.0438594 0 -2.78627 -0.11673 0 -2.70591 -0.177483 0 -2.55568 -0.164383 0 -2.45509 -0.153775 0 -2.35403 -0.143392 0 -2.2536 -0.131581 0 -2.15377 -0.119413 0 -2.05415 -0.105803 0 -1.95411 -0.0909606 0 -1.85395 -0.0760333 0 -1.75472 -0.0589076 0 -1.66433 0.013536 0 -1.5849 0.0972443 0 -1.51792 0.191216 0 -1.46464 0.294224 0 -1.42624 0.403548 0 -1.4037 0.517006 0 -4.89253 -0.921397 0 -4.8676 -1.04718 0 -4.82365 -1.16798 0 -4.76189 -1.28045 0 -4.68369 -1.38194 0 -4.57703 -1.40258 0 -4.47065 -1.42335 0 -4.36464 -1.44436 0 -4.25836 -1.46554 0 -4.15207 -1.48705 0 -4.04598 -1.50897 0 -3.94016 -1.53139 0 -3.83456 -1.55435 0 -3.72855 -1.57594 0 -3.60199 -1.51472 0 -3.5075 -1.41707 0 -3.41302 -1.31901 0 -3.28347 -1.18541 0 -3.1536 -1.05241 0 -3.02328 -0.919747 0 -3.02219 -0.807806 0 -3.02175 -0.696161 0 -3.02117 -0.584361 0 -3.02262 -0.472933 0 -3.09296 -0.361757 0 -3.17436 -0.25831 0 -3.336 -0.221555 0 -3.49799 -0.185953 0 -3.60454 -0.161847 0 -3.71137 -0.137047 0 -3.81796 -0.111545 0 -3.92441 -0.0852852 0 -4.03064 -0.0583436 0 -4.13681 -0.0309917 0 -4.24324 -0.00295608 0 -4.35367 -0.0348892 0 -4.45838 -0.0815356 0 -4.5551 -0.142227 0 -4.64237 -0.215606 0 -4.71889 -0.300106 0 -4.7833 -0.394562 0 -4.83445 -0.497391 0 -4.87806 -0.634555 0 -4.89753 -0.777137 0 -1.93139 -2.18008 0 -1.90916 -2.01299 0 -1.91712 -1.84459 0 -1.95519 -1.68071 0 -2.04077 -1.61514 0 -2.12799 -1.55134 0 -2.21604 -1.48747 0 -2.30459 -1.4236 0 -2.3931 -1.36019 0 -2.48201 -1.29717 0 -2.57128 -1.23533 0 -2.66068 -1.17389 0 -2.74993 -1.11273 0 -2.83901 -1.05186 0 -2.92847 -0.990894 0 -3.01934 -0.931639 0 -3.11643 -1.02871 0 -3.23646 -1.15142 0 -3.3563 -1.27471 0 -3.47561 -1.39824 0 -3.59441 -1.5223 0 -3.65216 -1.69348 0 -3.62585 -1.87171 0 -3.59955 -2.04968 0 -3.57261 -2.22745 0 -3.54481 -2.40515 0 -3.51686 -2.58247 0 -3.44435 -2.65715 0 -3.36293 -2.72182 0 -3.27551 -2.77775 0 -3.18148 -2.8232 0 -3.08295 -2.85734 0 -2.98152 -2.88029 0 -2.80871 -2.89281 0 -2.637 -2.87282 0 -2.47165 -2.8208 0 -2.31885 -2.73907 0 -2.1842 -2.62987 0 -2.0724 -2.49707 0 -1.98701 -2.3453 0 -4.47344 1.79998 0 -4.41568 1.67844 0 -4.33986 1.56697 0 -4.24717 1.46826 0 -4.14042 1.38502 0 -4.02487 1.38544 0 -3.90919 1.38513 0 -3.79354 1.38378 0 -3.6783 1.38156 0 -3.56367 1.37881 0 -3.44869 1.375 0 -3.33424 1.36929 0 -3.22057 1.36236 0 -3.10659 1.35626 0 -2.99133 1.46618 0 -2.89394 1.5926 0 -2.88064 1.70937 0 -2.86278 1.87286 0 -2.84429 2.03893 0 -2.82574 2.20535 0 -2.8072 2.37219 0 -2.88367 2.54528 0 -2.9357 2.62558 0 -2.99685 2.6992 0 -3.10853 2.80158 0 -3.23711 2.88317 0 -3.37683 2.94143 0 -3.52492 2.97488 0 -3.67558 2.98248 0 -3.82546 2.96465 0 -3.97102 2.92182 0 -4.10728 2.85498 0 -4.22997 2.76539 0 -4.3348 2.65614 0 -4.4197 2.53028 0 -4.48198 2.39173 0 -4.51901 2.24483 0 -4.52979 2.09427 0 -4.51458 1.94398 0 -2.941 0.985707 0 -2.93911 1.09404 0 -3.01368 1.22514 0 -3.10854 1.34381 0 -3.22279 1.35252 0 -3.33687 1.35946 0 -3.45145 1.36514 0 -3.56667 1.36892 0 -3.68188 1.37167 0 -3.797 1.37387 0 -3.91216 1.37519 0 -4.02734 1.37547 0 -4.14223 1.37332 0 -4.25284 1.29146 0 -4.34916 1.19368 0 -4.42836 1.08158 0 -4.48837 0.957666 0 -4.53106 0.808385 0 -4.54536 0.654108 0 -4.53675 0.531302 0 -4.51065 0.41178 0 -4.46719 0.297765 0 -4.40723 0.191074 0 -4.33246 0.0940785 0 -4.24447 0.00892405 0 -4.14442 -0.0187072 0 -4.04451 -0.0445051 0 -3.94448 -0.0699506 0 -3.844 -0.0948974 0 -3.7436 -0.11913 0 -3.64305 -0.142717 0 -3.54242 -0.165725 0 -3.442 -0.188094 0 -3.34122 -0.210239 0 -3.17998 -0.244612 0 -3.1093 -0.174562 0 -3.04681 -0.0968058 0 -2.99357 -0.012596 0 -2.95121 0.0775027 0 -2.95017 0.22891 0 -2.94791 0.380525 0 -2.94749 0.531281 0 -2.94513 0.682321 0 -2.94318 0.834045 0 -3.63014 -1.91079 0 -3.64638 -1.80073 0 -3.66342 -1.6909 0 -3.73494 -1.58653 0 -3.84036 -1.56328 0 -3.9459 -1.54035 0 -4.05185 -1.51793 0 -4.15799 -1.49601 0 -4.26418 -1.47453 0 -4.37036 -1.45339 0 -4.47617 -1.43242 0 -4.58226 -1.41172 0 -4.68883 -1.39293 0 -4.81031 -1.45878 0 -4.92015 -1.54276 0 -5.01555 -1.64286 0 -5.09378 -1.75702 0 -5.15909 -1.89922 0 -5.19813 -2.05091 0 -5.2095 -2.20714 0 -5.19299 -2.36267 0 -5.14936 -2.51273 0 -5.08005 -2.65271 0 -4.98725 -2.7782 0 -4.87362 -2.88554 0 -4.74237 -2.97136 0 -4.59777 -3.03271 0 -4.44461 -3.06816 0 -4.28719 -3.07665 0 -4.13066 -3.0572 0 -3.98034 -3.00995 0 -3.84146 -2.93712 0 -3.76455 -2.88111 0 -3.69385 -2.81715 0 -3.63043 -2.7466 0 -3.57506 -2.66885 0 -3.52835 -2.58596 0 -3.53818 -2.51116 0 -3.5618 -2.36105 0 -3.58518 -2.21114 0 -3.60791 -2.06098 0 -3.01042 -0.475502 0 -3.01144 -0.624276 0 -3.01213 -0.772966 0 -3.01245 -0.92157 0 -2.90642 -0.993859 0 -2.80039 -1.06614 0 -2.694 -1.13896 0 -2.58695 -1.21243 0 -2.48019 -1.28627 0 -2.37435 -1.36131 0 -2.26853 -1.43725 0 -2.16305 -1.51354 0 -2.05836 -1.58976 0 -1.9545 -1.66674 0 -1.82245 -1.64477 0 -1.69533 -1.60188 0 -1.57653 -1.53861 0 -1.47041 -1.4567 0 -1.37828 -1.35921 0 -1.30322 -1.24827 0 -1.24812 -1.12623 0 -1.2133 -0.997158 0 -1.19992 -0.864652 0 -1.20824 -0.731807 0 -1.23748 -0.60161 0 -1.28765 -0.477893 0 -1.34113 -0.38704 0 -1.40646 -0.302919 0 -1.48102 -0.228421 0 -1.56543 -0.163681 0 -1.6577 -0.111138 0 -1.75529 -0.0704902 0 -1.85152 -0.0857379 0 -1.94714 -0.100019 0 -2.04247 -0.114175 0 -2.13789 -0.127455 0 -2.23321 -0.139089 0 -2.32866 -0.150966 0 -2.42389 -0.160504 0 -2.51925 -0.171196 0 -2.61549 -0.180685 0 -2.71167 -0.190278 0 -2.79619 -0.250294 0 -2.87475 -0.318323 0 -2.94619 -0.393384 0 -2.88294 1.60113 0 -2.81135 1.49543 0 -2.72516 1.40454 0 -2.62465 1.32941 0 -2.51102 1.31685 0 -2.39819 1.30348 0 -2.28527 1.2887 0 -2.17233 1.27335 0 -2.05916 1.25684 0 -1.94582 1.23906 0 -1.83356 1.22063 0 -1.72103 1.20092 0 -1.60935 1.18024 0 -1.49647 1.25796 0 -1.39734 1.35281 0 -1.31442 1.46427 0 -1.25163 1.58695 0 -1.20839 1.72462 0 -1.18802 1.86782 0 -1.19238 2.01377 0 -1.21925 2.15614 0 -1.27052 2.29252 0 -1.34296 2.41754 0 -1.43562 2.52896 0 -1.54577 2.62307 0 -1.67068 2.69903 0 -1.80585 2.75166 0 -1.94859 2.78106 0 -2.09394 2.78563 0 -2.23707 2.76624 0 -2.37634 2.72416 0 -2.50543 2.6595 0 -2.62201 2.57451 0 -2.68733 2.51166 0 -2.74514 2.44203 0 -2.79617 2.36688 0 -2.80726 2.28208 0 -2.82624 2.11098 0 -2.84536 1.9409 0 -2.86378 1.77055 0 
                </DataArray>
            </Points>
            <Polys>
                <DataArray type="Int64" Name="connectivity" format="ascii">
0 1 2 3 4 5 6 7 8 9 10 11 12 13 14 15 16 17 18 19 20 21 22 23 24 25 26 27 28 29 30 31 32 33 34 35 36 37 38 39 40 41 42 43 44 45 46 47 48 49 50 51 52 53 54 55 56 57 58 59 60 61 62 63 64 65 66 67 68 69 70 71 72 73 74 75 76 77 78 79 80 81 82 83 84 85 86 87 88 89 90 91 92 93 94 95 96 97 98 99 100 101 102 103 104 105 106 107 108 109 110 111 112 113 114 115 116 117 118 119 120 121 122 123 124 125 126 127 128 129 130 131 132 133 134 135 136 137 138 139 140 141 142 143 144 145 146 147 148 149 150 151 152 153 154 155 156 157 158 159 160 161 162 163 164 165 166 167 168 169 170 171 172 173 174 175 176 177 178 179 180 181 182 183 184 185 186 187 188 189 190 191 192 193 194 195 196 197 198 199 200 201 202 203 204 205 206 207 208 209 210 211 212 213 214 215 216 217 218 219 220 221 222 223 224 225 226 227 228 229 230 231 232 233 234 235 236 237 238 239 240 241 242 243 244 245 246 247 248 249 250 251 252 253 254 255 256 257 258 259 260 261 262 263 264 265 266 267 268 269 270 271 272 273 274 275 276 277 278 279 280 281 282 283 284 285 286 287 288 289 290 291 292 293 294 295 296 297 298 299 300 301 302 303 304 305 306 307 308 309 310 311 312 313 314 315 316 317 318 319 320 321 322 323 324 325 326 327 328 329 330 331 332 333 334 
                </DataArray>
                <DataArray type="Int64" Name="offsets" format="ascii">
42 86 126 165 209 250 295 335 
                </DataArray>
            </Polys>
        </Piece>
    </PolyData>
</VTKFile>
