<VTKFile type="PolyData" version="0.1" byte_order="LittleEndian">
    <PolyData>
        <Piece NumberOfPoints="1577" NumberOfPolys="36">
            <CellData>
                <DataArray type="Float64" Name="area" format="ascii">
1.92602 2.57688 2.70962 1.51738 1.92577 2.38275 2.57336 2.36288 2.74686 1.81504 2.69017 2.39992 2.14176 2.9597 3.34046 2.72224 1.82061 1.81569 1.67844 3.04258 2.88079 2.53241 2.43784 2.22799 1.48574 2.16442 1.88498 2.24577 1.91059 2.06243 1.83052 1.60249 1.58041 2.00604 1.56127 1.64766 
                </DataArray>
                <DataArray type="Float64" Name="c1" format="ascii">
0.0517951 0.0208693 0.0237739 0.0234419 0.0228068 0.0130606 0.0304298 0.0430822 0.0146746 0.030132 0.0137424 0.0179284 0.0168563 0.0326448 0.0414315 0.03506 0.0159513 0.0377374 0.021499 0.0306609 0.0133609 0.0153781 0.0188258 0.0242445 0.0197075 0.0161748 0.0447754 0.0412097 0.0187185 0.0221289 0.0227528 0.0274444 0.0185875 0.0402684 0.0306147 0.0180329 
                </DataArray>
                <DataArray type="Float64" Name="c2" format="ascii">
0.513233 0.613477 0.529573 0.6276 0.677283 0.829761 0.472404 0.440318 0.805657 0.513118 0.647533 0.763006 0.556181 0.58693 0.466308 0.460557 0.719006 0.523679 0.608335 0.523175 0.756924 0.666735 0.715744 0.618055 0.596067 0.779898 0.423055 0.477948 0.676188 0.498989 0.671597 0.560243 0.683194 0.525441 0.58191 0.5826 
                </DataArray>
                <DataArray type="Float64" Name="grad_c1" NumberOfComponents="2" format="ascii">
0.00276329 -0.00111338 0.00271698 0.00239383 0.00199614 0.00367586 0.00370718 -0.00343772 0.00429214 -0.00130295 0.00114396 0.00100166 0.00219043 0.0048199 0.00230578 -0.00180868 0.00176582 -0.00130289 0.00115778 -0.00576044 0.000894759 0.0018643 0.00251102 0.000490703 0.00105983 0.00249703 0.00951814 0.000770864 -0.00101719 0.00511377 0.000970356 -0.00562508 0.00180764 0.0014547 0.00251054 -0.011437 0.00218982 -0.00352019 0.00323059 0.00547772 0.00119018 0.00130818 0.00155216 0.00184629 0.0028135 -0.00181031 0.00423776 0.00246249 0.00196056 0.00255326 0.00183531 0.0008707 0.00635827 -0.00628365 -0.00334481 -0.00648599 0.00217276 -0.00246318 0.00154924 0.00363263 0.00432457 0.000631236 0.00271679 -0.00557435 0.00253852 0.00146524 0.00622413 0.00985981 0.00649781 -0.00556997 0.0013376 0.00278744 
                </DataArray>
                <DataArray type="Float64" Name="grad_c2" NumberOfComponents="2" format="ascii">
-0.0371151 0.00417402 -0.0508064 -0.00420507 -0.0397071 -0.00929722 -0.055689 0.0134572 -0.06855 0.00703979 -0.0749164 -0.00827426 -0.0263163 -0.0054877 -0.0216664 0.00434181 -0.0628692 0.000174315 -0.0291543 0.0205133 -0.0542781 -0.0175974 -0.0728789 0.0110375 -0.0373955 -0.0199399 -0.0497491 0.00344404 -0.0264953 0.0013847 -0.0242972 0.013539 -0.068043 -0.00473738 -0.0352066 0.0121776 -0.0456399 0.0227736 -0.0383586 -0.000500009 -0.0666806 -0.0155134 -0.0534128 -0.0162617 -0.0592331 0.00768394 -0.0538021 0.0028849 -0.0434505 -0.0192858 -0.082366 0.00127339 -0.0194631 0.00749865 -0.0269102 0.00953976 -0.0571502 0.0206204 -0.0294961 -0.0133101 -0.0644574 0.00936978 -0.0361242 0.0195165 -0.061399 0.000201465 -0.039816 0.00257585 -0.0493745 0.0104886 -0.0491463 -0.00545026 
                </DataArray>
                <DataArray type="Float64" Name="D1" format="ascii">
20.1884 47.8887 46.4257 29.5543 23.66 26.9155 31.6639 27.4076 30.8932 41.7876 28.6995 27.0936 25.8601 46.5973 31.4408 35.0437 37.913 16.8386 22.4411 28.3868 31.9534 36.3592 34.0147 20.1184 48.0826 38.3651 47.2917 29.8961 38.9749 43.0421 26.8686 32.3324 29.6121 52.4272 42.8323 25.5713 
                </DataArray>
                <DataArray type="Float64" Name="D2" format="ascii">
28.1376 29.476 55.2662 32.7903 26.1502 20.7843 31.7025 33.9204 29.999 25.2094 41.1061 34.7848 33.2469 38.6467 34.7848 56.3213 22.3241 25.0052 21.7317 17.7694 45.6173 35.0981 35.203 30.2212 14.9015 18.5881 34.7508 28.0313 24.2088 26.0686 28.7328 30.8758 30.5008 53.0714 18.1999 22.0737 
                </DataArray>
                <DataArray type="Float64" Name="k1" format="ascii">
0.910378 0.571072 1.14395 1.54432 0.926629 1.25016 0.575564 1.55852 0.945503 0.860941 0.791226 0.616893 1.05281 1.17647 0.817944 0.63907 0.482176 1.56031 0.91796 0.830993 0.79104 0.957837 0.807719 1.03161 1.08356 0.877557 1.01713 0.934678 0.868774 1.64607 0.737187 1.13232 0.856645 1.08628 0.597704 0.754089 
                </DataArray>
                <DataArray type="Float64" Name="k2" format="ascii">
0.1 0.1 0.1 0.1 0.1 0.1 0.1 0.1 0.1 0.1 0.1 0.1 0.1 0.1 0.1 0.1 0.1 0.1 0.1 0.1 0.1 0.1 0.1 0.1 0.1 0.1 0.1 0.1 0.1 0.1 0.1 0.1 0.1 0.1 0.1 0.1 
                </DataArray>
                <DataArray type="Float64" Name="k3" format="ascii">
1 1 1 1 1 1 1 1 1 1 1 1 1 1 1 1 1 1 1 1 1 1 1 1 1 1 1 1 1 1 1 1 1 1 1 1 
                </DataArray>
                <DataArray type="Int64" Name="cell_type" format="ascii">
0 1 1 1 1 1 1 1 1 1 1 1 1 1 1 1 1 1 1 1 1 1 1 1 1 1 1 1 1 1 1 1 1 1 1 1 
                </DataArray>
                <DataArray type="Float64" Name="perimeter" format="ascii">
5.23852 6.08536 6.21813 4.63801 5.09772 5.61338 5.85096 5.61728 5.96639 4.87979 5.97486 5.68774 5.34636 6.47028 6.72352 6.0346 5.04647 4.94583 4.73247 6.68779 6.37902 6.07932 5.7352 5.46565 4.578 5.4055 5.00652 5.49656 5.01647 5.24532 4.97094 4.69339 4.62281 5.27467 4.61238 4.84682 
                </DataArray>
                <DataArray type="Float64" Name="neighbors" format="ascii">
5 7 6 6 5 2 4 4 1 4 3 2 3 6 6 4 6 5 3 6 3 6 4 5 4 3 2 6 3 3 4 5 4 4 5 5 
                </DataArray>
            </CellData>
            <Points>
                <DataArray type="Float64" Name="Points" NumberOfComponents="3" format="ascii">
-6.65327 1.54019 0 -6.64077 1.43949 0 -6.62743 1.34017 0 -6.55313 1.23821 0 -6.45188 1.20163 0 -6.34984 1.164 0 -6.24758 1.12497 0 -6.14703 1.08519 0 -6.0469 1.044 0 -5.94647 1.00148 0 -5.84677 0.958135 0 -5.74798 0.913764 0 -5.64799 0.866953 0 -5.5499 0.819034 0 -5.4522 0.769289 0 -5.35075 0.757005 0 -5.25037 0.765812 0 -5.15372 0.863134 0 -5.06405 0.965863 0 -4.98054 1.07437 0 -4.90452 1.18865 0 -4.83585 1.30773 0 -4.77714 1.43189 0 -4.82203 1.52545 0 -4.89181 1.60494 0 -4.96105 1.68353 0 -5.03009 1.7618 0 -5.09898 1.83992 0 -5.1685 1.9182 0 -5.26389 2.02543 0 -5.38241 2.10343 0 -5.51231 2.16074 0 -5.64699 2.16766 0 -5.78207 2.1738 0 -5.91717 2.18005 0 -6.05168 2.18621 0 -6.18505 2.19277 0 -6.31897 2.19951 0 -6.43461 2.13684 0 -6.56748 2.02453 0 -6.67204 1.88366 0 -6.67079 1.76841 0 -6.66556 1.65454 0 -7.29351 -1.16624 0 -7.34864 -1.04617 0 -7.45143 -0.978292 0 -7.55131 -1.00092 0 -7.65185 -1.02124 0 -7.75198 -1.03973 0 -7.8524 -1.05717 0 -7.9534 -1.07374 0 -8.05463 -1.08925 0 -8.15641 -1.10352 0 -8.25885 -1.1164 0 -8.36233 -1.12804 0 -8.46687 -1.13887 0 -8.57169 -1.1497 0 -8.66798 -1.22454 0 -8.74954 -1.31303 0 -8.8066 -1.43988 0 -8.84849 -1.52537 0 -8.89065 -1.61091 0 -8.98838 -1.77439 0 -9.04042 -1.85494 0 -9.09527 -1.93458 0 -9.10848 -2.04427 0 -9.11201 -2.15447 0 -9.09555 -2.2609 0 -9.08061 -2.36771 0 -9.06644 -2.47425 0 -9.05418 -2.57985 0 -8.98101 -2.65378 0 -8.90275 -2.72012 0 -8.72365 -2.76221 0 -8.60701 -2.79052 0 -8.48983 -2.81817 0 -8.34051 -2.78167 0 -8.23842 -2.70791 0 -8.13556 -2.63489 0 -8.03088 -2.56312 0 -7.92402 -2.4932 0 -7.81284 -2.42927 0 -7.65992 -2.34548 0 -7.50496 -2.26974 0 -7.34412 -2.20039 0 -7.26843 -2.11131 0 -7.23188 -2.00947 0 -7.19502 -1.90861 0 -7.15753 -1.8085 0 -7.11745 -1.70914 0 -7.07483 -1.61057 0 -7.14934 -1.46251 0 -7.22267 -1.31478 0 -7.21201 -1.98387 0 -7.25644 -2.11173 0 -7.2169 -2.25441 0 -7.12856 -2.35955 0 -7.03595 -2.46151 0 -6.94415 -2.56361 0 -6.871 -2.67682 0 -6.81791 -2.80439 0 -6.78734 -2.92266 0 -6.67841 -3.06243 0 -6.55397 -3.14942 0 -6.42194 -3.2229 0 -6.30824 -3.30028 0 -6.21442 -3.39848 0 -6.07357 -3.42566 0 -5.92769 -3.42415 0 -5.78314 -3.39436 0 -5.67306 -3.28433 0 -5.56456 -3.17281 0 -5.45853 -3.05848 0 -5.35575 -2.94046 0 -5.25691 -2.81883 0 -5.16229 -2.69398 0 -5.12038 -2.52471 0 -5.18135 -2.37534 0 -5.2265 -2.26997 0 -5.27414 -2.16662 0 -5.32485 -2.06555 0 -5.3777 -1.96569 0 -5.43232 -1.86725 0 -5.49035 -1.7707 0 -5.62008 -1.74642 0 -5.75065 -1.72434 0 -5.88138 -1.70386 0 -6.01199 -1.68451 0 -6.14256 -1.66678 0 -6.2736 -1.65186 0 -6.40519 -1.64004 0 -6.53705 -1.6305 0 -6.66868 -1.62303 0 -6.80022 -1.61748 0 -6.93157 -1.61369 0 -7.06257 -1.61119 0 -7.11256 -1.72347 0 -7.15824 -1.83855 0 -8.34629 2.94865 0 -8.25794 2.89406 0 -8.15337 2.89769 0 -8.05125 2.91964 0 -7.97071 2.99149 0 -7.88726 3.06269 0 -7.8042 3.13149 0 -7.72054 3.2009 0 -7.63457 3.27143 0 -7.55113 3.33886 0 -7.46732 3.40635 0 -7.37881 3.47542 0 -7.29126 3.54155 0 -7.20293 3.60672 0 -7.15045 3.71729 0 -7.11667 3.83447 0 -7.12571 3.94826 0 -7.20237 4.08887 0 -7.32624 4.16333 0 -7.44938 4.23709 0 -7.57264 4.31082 0 -7.69552 4.38454 0 -7.8269 4.40137 0 -7.93742 4.35548 0 -8.04677 4.3082 0 -8.15617 4.26147 0 -8.26549 4.21532 0 -8.37528 4.16875 0 -8.48562 4.12161 0 -8.56665 4.02966 0 -8.56792 3.91688 0 -8.56714 3.76367 0 -8.56458 3.6102 0 -8.55896 3.45521 0 -8.55087 3.30069 0 -8.53914 3.14482 0 -8.48329 3.04104 0 -8.41519 2.99495 0 -9.71605 1.9412 0 -9.66878 1.85175 0 -9.61062 1.77024 0 -9.54231 1.69789 0 -9.44758 1.69528 0 -9.35273 1.69148 0 -9.25641 1.68614 0 -9.15872 1.67942 0 -9.06011 1.67116 0 -8.96156 1.66149 0 -8.86392 1.65014 0 -8.76768 1.63698 0 -8.67235 1.62299 0 -8.57758 1.60818 0 -8.48719 1.65053 0 -8.40327 1.70487 0 -8.32992 1.77217 0 -8.24913 1.9 0 -8.1707 2.03065 0 -8.09523 2.16191 0 -8.02111 2.29937 0 -8.025 2.41986 0 -8.06669 2.54176 0 -8.10799 2.66157 0 -8.17745 2.77443 0 -8.25773 2.8811 0 -8.35777 2.94417 0 -8.48131 3.02765 0 -8.61203 3.04168 0 -8.70446 3.01562 0 -8.79668 2.98934 0 -8.88839 2.96261 0 -8.97976 2.93654 0 -9.07098 2.9104 0 -9.1626 2.88458 0 -9.25447 2.85832 0 -9.34543 2.83277 0 -9.43581 2.80763 0 -9.52685 2.78262 0 -9.59143 2.72063 0 -9.64839 2.65152 0 -9.69625 2.57572 0 -9.73327 2.49319 0 -9.76225 2.39569 0 -9.77616 2.2959 0 -9.77748 2.19441 0 -9.76389 2.09392 0 -9.7444 2.01604 0 -11.6368 -3.84605 0 -11.4947 -3.88672 0 -11.3476 -3.9049 0 -11.1999 -3.90026 0 -11.1329 -3.79981 0 -11.0647 -3.69991 0 -10.9961 -3.6011 0 -10.9272 -3.50313 0 -10.8577 -3.40587 0 -10.7879 -3.30919 0 -10.7175 -3.213 0 -10.6461 -3.11736 0 -10.5742 -3.02255 0 -10.5019 -2.92866 0 -10.4865 -2.80399 0 -10.5502 -2.68994 0 -10.6136 -2.57505 0 -10.6664 -2.47787 0 -10.7181 -2.37972 0 -10.7684 -2.28069 0 -10.8194 -2.18177 0 -10.9261 -2.12073 0 -11.0397 -2.07435 0 -11.1586 -2.04367 0 -11.281 -2.02897 0 -11.4042 -2.03039 0 -11.526 -2.04826 0 -11.6442 -2.08252 0 -11.7567 -2.13277 0 -11.8616 -2.1981 0 -11.9569 -2.27716 0 -12.0409 -2.3682 0 -12.1125 -2.46979 0 -12.1705 -2.58055 0 -12.2133 -2.69817 0 -12.2426 -2.83633 0 -12.2508 -2.97753 0 -12.2373 -3.11882 0 -12.2033 -3.25622 0 -12.1495 -3.38685 0 -12.0769 -3.50827 0 -11.9871 -3.61703 0 -11.8822 -3.71064 0 -11.7644 -3.78748 0 -4.55142 -0.754798 0 -4.67511 -0.744608 0 -4.78749 -0.790171 0 -4.89254 -0.849833 0 -4.94449 -0.945102 0 -4.99784 -1.04007 0 -5.05279 -1.13385 0 -5.10924 -1.2266 0 -5.16744 -1.31883 0 -5.22696 -1.41004 0 -5.28765 -1.50049 0 -5.34989 -1.5899 0 -5.41378 -1.67862 0 -5.47851 -1.76795 0 -5.40938 -1.88704 0 -5.34315 -2.00832 0 -5.2798 -2.13156 0 -5.23419 -2.22802 0 -5.19104 -2.32596 0 -5.15014 -2.42508 0 -5.10869 -2.52378 0 -5.02311 -2.60621 0 -4.94612 -2.62708 0 -4.8682 -2.64648 0 -4.79067 -2.66647 0 -4.71366 -2.68686 0 -4.55951 -2.7284 0 -4.48256 -2.74973 0 -4.40619 -2.76912 0 -4.31175 -2.73324 0 -4.22114 -2.6885 0 -4.13511 -2.6356 0 -4.05447 -2.57513 0 -3.98013 -2.5071 0 -3.9125 -2.43186 0 -3.85267 -2.35104 0 -3.8014 -2.26507 0 -3.75805 -2.17415 0 -3.72339 -2.07958 0 -3.69825 -1.98241 0 -3.68208 -1.88334 0 -3.67617 -1.78321 0 -3.67914 -1.683 0 -3.69151 -1.58334 0 -3.71353 -1.4853 0 -3.7448 -1.39015 0 -3.78476 -1.29888 0 -3.83347 -1.21186 0 -3.8907 -1.12978 0 -3.99661 -1.01068 0 -4.11915 -0.9097 0 -4.2548 -0.828628 0 -4.40168 -0.76768 0 -2.7141 0.736517 0 -2.57534 0.839412 0 -2.4557 0.964321 0 -2.35805 1.10703 0 -2.28533 1.26353 0 -2.24016 1.42955 0 -2.29725 1.53261 0 -2.35665 1.63497 0 -2.41665 1.73781 0 -2.4769 1.84064 0 -2.5371 1.94302 0 -2.59749 2.04546 0 -2.6583 2.14849 0 -2.71927 2.25181 0 -2.77998 2.35481 0 -2.88987 2.41623 0 -2.99932 2.4152 0 -3.13864 2.4111 0 -3.27741 2.40414 0 -3.41481 2.39349 0 -3.55196 2.37729 0 -3.684 2.2781 0 -3.75979 2.13592 0 -3.83643 1.99522 0 -3.88499 1.90723 0 -3.93514 1.82047 0 -3.98604 1.73478 0 -4.03733 1.64951 0 -4.08795 1.56408 0 -4.09958 1.45554 0 -4.01291 1.32757 0 -3.92297 1.20073 0 -3.85397 1.11346 0 -3.78182 1.0298 0 -3.7066 0.948466 0 -3.62852 0.86985 0 -3.54703 0.793958 0 -3.46266 0.721015 0 -3.37537 0.650545 0 -3.28383 0.584769 0 -3.08494 0.597678 0 -2.89292 0.648794 0 -10.7207 3.16374 0 -10.5681 3.19879 0 -10.4239 3.25874 0 -10.291 3.34142 0 -10.2606 3.45466 0 -10.231 3.56898 0 -10.2003 3.6835 0 -10.1687 3.7977 0 -10.1363 3.91111 0 -10.1032 4.02342 0 -10.0694 4.13477 0 -10.0348 4.24603 0 -9.99982 4.35688 0 -9.96635 4.46813 0 -10.0327 4.60971 0 -10.1214 4.73847 0 -10.2297 4.851 0 -10.3857 4.96347 0 -10.5616 5.04238 0 -10.6973 5.07623 0 -10.8367 5.08965 0 -10.9762 5.08208 0 -11.1131 5.05368 0 -11.2447 5.00562 0 -11.3681 4.93918 0 -11.4807 4.85519 0 -11.5804 4.75523 0 -11.6651 4.64175 0 -11.7331 4.51712 0 -11.783 4.38371 0 -11.8132 4.24459 0 -11.8224 4.10335 0 -11.8109 3.96287 0 -11.779 3.8262 0 -11.7278 3.69649 0 -11.6585 3.57559 0 -11.5719 3.46559 0 -11.4696 3.3692 0 -11.3537 3.28855 0 -11.2275 3.22553 0 -11.0939 3.18184 0 -10.9703 3.15976 0 -10.8451 3.15381 0 -5.16369 4.77393 0 -5.2807 4.7335 0 -5.39295 4.6778 0 -5.49513 4.60717 0 -5.58649 4.52389 0 -5.58851 4.43536 0 -5.58944 4.34654 0 -5.59065 4.25889 0 -5.59225 4.17041 0 -5.59493 4.08216 0 -5.59789 3.99473 0 -5.60107 3.90822 0 -5.60439 3.82197 0 -5.60764 3.73613 0 -5.52864 3.65052 0 -5.43468 3.5947 0 -5.34293 3.53981 0 -5.21037 3.4565 0 -5.08253 3.36875 0 -4.98991 3.33561 0 -4.89404 3.3113 0 -4.79825 3.3294 0 -4.70135 3.34702 0 -4.6039 3.3642 0 -4.50634 3.38113 0 -4.41118 3.40436 0 -4.3214 3.44516 0 -4.25732 3.57896 0 -4.21941 3.65986 0 -4.1828 3.74111 0 -4.14706 3.82322 0 -4.11254 3.90388 0 -4.07864 3.98485 0 -4.04632 4.06666 0 -4.07009 4.1695 0 -4.10715 4.2695 0 -4.18442 4.4084 0 -4.28457 4.53032 0 -4.40526 4.63368 0 -4.54277 4.71363 0 -4.69055 4.76886 0 -4.84752 4.7986 0 -5.00685 4.80037 0 -7.28955 -4.55547 0 -7.38709 -4.52462 0 -7.54973 -4.46989 0 -7.71155 -4.41144 0 -7.88549 -4.39567 0 -7.98359 -4.45643 0 -8.08228 -4.51859 0 -8.1824 -4.57807 0 -8.28361 -4.63498 0 -8.38613 -4.68951 0 -8.49017 -4.74159 0 -8.5954 -4.79089 0 -8.70145 -4.83724 0 -8.80828 -4.88085 0 -8.91534 -4.92082 0 -8.93653 -5.06475 0 -8.93756 -5.20908 0 -8.91804 -5.35205 0 -8.89026 -5.45661 0 -8.85125 -5.55764 0 -8.80171 -5.65384 0 -8.74229 -5.74417 0 -8.67374 -5.82773 0 -8.59696 -5.90369 0 -8.48418 -5.9915 0 -8.36012 -6.06325 0 -8.22719 -6.11713 0 -8.08843 -6.15184 0 -7.94601 -6.1668 0 -7.80259 -6.16221 0 -7.66142 -6.13772 0 -7.52535 -6.09384 0 -7.3969 -6.03168 0 -7.27865 -5.95237 0 -7.1727 -5.85772 0 -7.08062 -5.7494 0 -7.00433 -5.62952 0 -6.94555 -5.50016 0 -6.89949 -5.33517 0 -6.88186 -5.16484 0 -6.94104 -5.01745 0 -6.99955 -4.87043 0 -7.05741 -4.72429 0 -7.12114 -4.6513 0 -7.19061 -4.58395 0 -11.3908 0.503299 0 -11.3565 0.340191 0 -11.2936 0.185813 0 -11.2055 0.0448914 0 -11.0849 0.023785 0 -10.9647 0.00310582 0 -10.844 -0.0179438 0 -10.7238 -0.0390989 0 -10.6037 -0.0604697 0 -10.4846 -0.0818976 0 -10.3655 -0.103584 0 -10.2471 -0.125212 0 -10.1289 -0.147018 0 -10.0105 -0.167277 0 -9.86964 -0.0972121 0 -9.74303 -0.0036829 0 -9.6349 0.110398 0 -9.57656 0.192838 0 -9.52761 0.281273 0 -9.59605 0.449351 0 -9.65893 0.619041 0 -9.69103 0.717564 0 -9.72328 0.816903 0 -9.75395 0.916949 0 -9.78442 1.01691 0 -9.81487 1.11747 0 -9.84418 1.21818 0 -9.87279 1.31898 0 -9.98399 1.39801 0 -10.1054 1.4602 0 -10.234 1.50434 0 -10.3685 1.52964 0 -10.5054 1.5345 0 -10.6411 1.51913 0 -10.7737 1.48404 0 -10.8994 1.42942 0 -11.0158 1.35618 0 -11.1206 1.26669 0 -11.2115 1.16277 0 -11.3034 1.01382 0 -11.3648 0.850342 0 -11.3946 0.678445 0 -5.23419 -4.78374 0 -5.20165 -4.65788 0 -5.18671 -4.5299 0 -5.1886 -4.40107 0 -5.25773 -4.33696 0 -5.32755 -4.2733 0 -5.39719 -4.20992 0 -5.46631 -4.14707 0 -5.53489 -4.08414 0 -5.60384 -4.02127 0 -5.67267 -3.95806 0 -5.74172 -3.89467 0 -5.81197 -3.83313 0 -5.93438 -3.82812 0 -6.05582 -3.84005 0 -6.17365 -3.86915 0 -6.28613 -3.91406 0 -6.35528 -3.98281 0 -6.42612 -4.05116 0 -6.4973 -4.11799 0 -6.5693 -4.18379 0 -6.64296 -4.24788 0 -6.71661 -4.31204 0 -6.79226 -4.37475 0 -6.86926 -4.43684 0 -6.94698 -4.49777 0 -7.02423 -4.55829 0 -7.0458 -4.72648 0 -7.01043 -4.81593 0 -6.97474 -4.90587 0 -6.93889 -4.99593 0 -6.9027 -5.08621 0 -6.87103 -5.16175 0 -6.80585 -5.22257 0 -6.65976 -5.32535 0 -6.49772 -5.39963 0 -6.32473 -5.44324 0 -6.14768 -5.45531 0 -5.97147 -5.43531 0 -5.82976 -5.39519 0 -5.69511 -5.33534 0 -5.57108 -5.25517 0 -5.46082 -5.1573 0 -5.36643 -5.04409 0 -5.2903 -4.91839 0 -7.64271 2.24322 0 -7.73818 2.26601 0 -7.88785 2.30381 0 -8.01906 2.28031 0 -8.09171 2.14787 0 -8.1663 2.01853 0 -8.24468 1.88817 0 -8.32626 1.75947 0 -8.37962 1.60088 0 -8.41127 1.43574 0 -8.38478 1.27121 0 -8.36413 1.10459 0 -8.34819 0.936234 0 -8.33781 0.769135 0 -8.33547 0.602587 0 -8.23763 0.469872 0 -8.11232 0.401471 0 -7.98605 0.330508 0 -7.84287 0.248228 0 -7.70067 0.163775 0 -7.58856 0.0953456 0 -7.4765 0.0259417 0 -7.37876 0.066884 0 -7.28643 0.120964 0 -7.20188 0.186249 0 -7.12593 0.262312 0 -7.09785 0.378817 0 -7.06196 0.493116 0 -7.01951 0.602658 0 -6.97202 0.709779 0 -6.92035 0.813785 0 -6.8644 0.915096 0 -6.80321 1.01456 0 -6.73756 1.11089 0 -6.66754 1.20516 0 -6.63833 1.34645 0 -6.65892 1.50046 0 -6.67572 1.65621 0 -6.68068 1.7657 0 -6.68182 1.8752 0 -6.74199 1.95994 0 -6.807 2.03833 0 -6.87808 2.11015 0 -6.95567 2.17681 0 -7.05637 2.17721 0 -7.15485 2.1816 0 -7.25178 2.18826 0 -7.35019 2.19721 0 -7.44833 2.20854 0 -7.54556 2.22312 0 -4.10616 1.4447 0 -4.21457 1.48176 0 -4.30542 1.4696 0 -4.39696 1.46157 0 -4.57858 1.45167 0 -4.66996 1.44962 0 -4.76661 1.42535 0 -4.82694 1.30328 0 -4.89584 1.18374 0 -4.97271 1.0682 0 -5.05696 0.958795 0 -5.14834 0.854266 0 -5.24637 0.753913 0 -5.27968 0.669352 0 -5.30757 0.582655 0 -5.31286 0.416213 0 -5.32651 0.249483 0 -5.35061 0.085936 0 -5.38887 -0.0730647 0 -5.37582 -0.166058 0 -5.30698 -0.229978 0 -5.23828 -0.293242 0 -5.17043 -0.357979 0 -5.09801 -0.430909 0 -5.02623 -0.504606 0 -4.95605 -0.58149 0 -4.8671 -0.639122 0 -4.77464 -0.689372 0 -4.67836 -0.733542 0 -4.58729 -0.741838 0 -4.49512 -0.749564 0 -4.40358 -0.757536 0 -4.31366 -0.742735 0 -4.22543 -0.721229 0 -4.13918 -0.693532 0 -4.0553 -0.660122 0 -3.97333 -0.620471 0 -3.89502 -0.574982 0 -3.82072 -0.524475 0 -3.75028 -0.469162 0 -3.68356 -0.409179 0 -3.60496 -0.32768 0 -3.53384 -0.239285 0 -3.47396 -0.148795 0 -3.42209 -0.0532822 0 -3.37899 0.0464085 0 -3.34475 0.149358 0 -3.31967 0.254881 0 -3.30382 0.362557 0 -3.29687 0.471794 0 -3.29905 0.581403 0 -3.38659 0.646536 0 -3.47127 0.715212 0 -3.55397 0.786788 0 -3.63414 0.861419 0 -3.71116 0.938779 0 -3.78505 1.01837 0 -3.85591 1.10003 0 -3.923 1.18382 0 -3.98512 1.27055 0 -4.04587 1.35759 0 -3.71467 2.52901 0 -3.67123 2.442 0 -3.54813 2.38863 0 -3.41662 2.40333 0 -3.2858 2.41362 0 -3.15549 2.42047 0 -3.02431 2.4246 0 -2.89287 2.4273 0 -2.77245 2.49579 0 -2.69901 2.60648 0 -2.62445 2.71665 0 -2.54743 2.82567 0 -2.46777 2.93315 0 -2.38494 3.03923 0 -2.29831 3.14261 0 -2.30634 3.29815 0 -2.33639 3.45095 0 -2.38844 3.59776 0 -2.45701 3.73217 0 -2.54431 3.8562 0 -2.64776 3.96732 0 -2.7647 4.06356 0 -2.89419 4.14303 0 -3.03289 4.20375 0 -3.17871 4.24427 0 -3.32892 4.2651 0 -3.48034 4.26523 0 -3.62947 4.24429 0 -3.77347 4.20262 0 -3.90943 4.14133 0 -4.03606 4.06098 0 -4.06907 3.9819 0 -4.10241 3.90221 0 -4.13557 3.8247 0 -4.16906 3.74747 0 -4.20333 3.67085 0 -4.23909 3.59405 0 -4.27546 3.51796 0 -4.30977 3.44138 0 -4.28107 3.34362 0 -4.21455 3.26625 0 -4.14937 3.18864 0 -4.08598 3.11109 0 -4.0252 3.03095 0 -3.96478 2.95121 0 -3.90977 2.86815 0 -3.85456 2.785 0 -3.80581 2.70062 0 -3.75681 2.61632 0 -9.105 -2.26511 0 -9.12152 -2.15853 0 -9.16754 -2.06079 0 -9.22826 -1.97132 0 -9.3301 -1.93692 0 -9.43178 -1.90014 0 -9.53152 -1.86185 0 -9.62973 -1.82154 0 -9.72612 -1.7787 0 -9.82128 -1.73136 0 -9.91452 -1.68223 0 -10.0068 -1.63173 0 -10.0983 -1.57956 0 -10.1889 -1.52592 0 -10.3072 -1.51894 0 -10.4215 -1.56992 0 -10.536 -1.62003 0 -10.645 -1.73417 0 -10.7292 -1.868 0 -10.7849 -2.01677 0 -10.8104 -2.17433 0 -10.7508 -2.29342 0 -10.7065 -2.3804 0 -10.6611 -2.46673 0 -10.6148 -2.55206 0 -10.568 -2.63658 0 -10.5216 -2.7208 0 -10.473 -2.80417 0 -10.3625 -2.86907 0 -10.2394 -2.88234 0 -10.1163 -2.89497 0 -9.99288 -2.90698 0 -9.86949 -2.91875 0 -9.74624 -2.93027 0 -9.62252 -2.94154 0 -9.49859 -2.95276 0 -9.374 -2.96162 0 -9.2771 -2.88344 0 -9.17967 -2.8043 0 -9.1157 -2.70007 0 -9.06285 -2.59119 0 -9.08261 -2.42763 0 -5.70563 2.18029 0 -5.51389 2.17162 0 -5.42329 2.21767 0 -5.34117 2.27981 0 -5.27308 2.46349 0 -5.23965 2.55551 0 -5.20696 2.64714 0 -5.14231 2.83075 0 -5.07831 3.01441 0 -5.01596 3.19893 0 -5.09425 3.36482 0 -5.23513 3.46048 0 -5.38097 3.55116 0 -5.53029 3.63965 0 -5.69799 3.65789 0 -5.85857 3.59285 0 -6.02161 3.52629 0 -6.17964 3.45059 0 -6.33769 3.37152 0 -6.4971 3.28928 0 -6.54606 3.20107 0 -6.58327 3.10575 0 -6.58874 3.01526 0 -6.59426 2.92511 0 -6.59995 2.83351 0 -6.60561 2.7422 0 -6.61452 2.58868 0 -6.54886 2.44084 0 -6.44949 2.31089 0 -6.3232 2.2111 0 -6.2004 2.20357 0 -6.07664 2.19737 0 -5.95239 2.19158 0 -5.82857 2.18589 0 -7.30288 5.70514 0 -7.43185 5.67597 0 -7.55356 5.62496 0 -7.66469 5.55484 0 -7.76155 5.46817 0 -7.76189 5.36958 0 -7.7626 5.27205 0 -7.76373 5.17412 0 -7.76463 5.07611 0 -7.76482 4.97956 0 -7.7652 4.88258 0 -7.76563 4.78419 0 -7.76475 4.68632 0 -7.76349 4.58938 0 -7.76098 4.49275 0 -7.69574 4.39631 0 -7.61544 4.34807 0 -7.50958 4.28468 0 -7.40506 4.22215 0 -7.30153 4.1601 0 -7.19727 4.09922 0 -7.05618 4.12699 0 -6.95177 4.22443 0 -6.82407 4.34695 0 -6.69886 4.47139 0 -6.57439 4.59939 0 -6.45501 4.72874 0 -6.43101 4.83372 0 -6.42332 4.93943 0 -6.42885 5.04723 0 -6.44887 5.15256 0 -6.48431 5.25316 0 -6.53446 5.35058 0 -6.59654 5.43888 0 -6.67101 5.51707 0 -6.80896 5.61525 0 -6.96499 5.6807 0 -7.13352 5.71012 0 -5.91837 -1.68814 0 -5.77413 -1.71036 0 -5.63073 -1.73443 0 -5.48797 -1.76 0 -5.42199 -1.67298 0 -5.35813 -1.58429 0 -5.29571 -1.49461 0 -5.23495 -1.40405 0 -5.17561 -1.3131 0 -5.11758 -1.22112 0 -5.06107 -1.12829 0 -5.00592 -1.03412 0 -4.95249 -0.938963 0 -4.90177 -0.843002 0 -4.92028 -0.714192 0 -4.96284 -0.589945 0 -5.04694 -0.49748 0 -5.15735 -0.385152 0 -5.27129 -0.276092 0 -5.38712 -0.171543 0 -5.50732 -0.162489 0 -5.60879 -0.180454 0 -5.71171 -0.197961 0 -5.81448 -0.213695 0 -5.91655 -0.226719 0 -6.01888 -0.239831 0 -6.12092 -0.245928 0 -6.22359 -0.251734 0 -6.32822 -0.251414 0 -6.43247 -0.251162 0 -6.53632 -0.248728 0 -6.64059 -0.240818 0 -6.74258 -0.229487 0 -6.84528 -0.219162 0 -7.00381 -0.290582 0 -7.14779 -0.388376 0 -7.27243 -0.510531 0 -7.29445 -0.601981 0 -7.31631 -0.695346 0 -7.35261 -0.850722 0 -7.34241 -1.03505 0 -7.27716 -1.17754 0 -7.2096 -1.31883 0 -7.13983 -1.45931 0 -7.068 -1.59895 0 -6.95355 -1.60321 0 -6.83839 -1.60616 0 -6.72332 -1.61042 0 -6.60856 -1.61611 0 -6.49443 -1.62327 0 -6.37973 -1.63207 0 -6.26426 -1.64277 0 -6.14875 -1.65594 0 -6.03344 -1.67137 0 -10.0233 -2.91405 0 -10.1249 -2.90412 0 -10.2455 -2.89171 0 -10.366 -2.87981 0 -10.4912 -2.93285 0 -10.5648 -3.02677 0 -10.6373 -3.12223 0 -10.7092 -3.21852 0 -10.7801 -3.31544 0 -10.8506 -3.41299 0 -10.9207 -3.5112 0 -10.9902 -3.61 0 -11.0592 -3.70959 0 -11.1279 -3.8102 0 -11.1935 -3.91266 0 -11.1632 -4.09611 0 -11.1017 -4.27136 0 -11.0109 -4.43301 0 -10.8997 -4.57074 0 -10.7677 -4.68859 0 -10.6183 -4.7828 0 -10.5006 -4.83548 0 -10.3775 -4.87393 0 -10.2506 -4.89746 0 -10.1219 -4.90553 0 -9.99318 -4.89805 0 -9.86599 -4.87518 0 -9.74244 -4.83718 0 -9.62471 -4.78464 0 -9.51413 -4.71832 0 -9.41103 -4.63884 0 -9.41713 -4.45362 0 -9.42128 -4.26816 0 -9.42348 -4.08286 0 -9.42279 -3.89768 0 -9.41925 -3.71243 0 -9.41309 -3.52719 0 -9.40407 -3.3421 0 -9.39241 -3.15756 0 -9.37902 -2.97357 0 -9.54856 -2.95823 0 -9.71699 -2.94296 0 -9.81937 -2.93347 0 -9.92144 -2.92383 0 -9.39777 -4.64237 0 -9.25543 -4.7563 0 -9.09702 -4.84684 0 -8.92709 -4.91191 0 -8.81755 -4.87371 0 -8.70953 -4.82981 0 -8.60296 -4.78335 0 -8.49772 -4.73415 0 -8.39373 -4.6822 0 -8.2912 -4.62776 0 -8.19038 -4.57115 0 -8.09139 -4.51244 0 -7.99415 -4.45132 0 -7.89854 -4.39011 0 -7.88229 -4.26948 0 -7.91611 -4.16794 0 -7.92137 -4.05701 0 -7.90543 -3.88205 0 -7.93704 -3.77936 0 -7.97763 -3.68877 0 -8.06955 -3.62021 0 -8.14022 -3.54095 0 -8.21078 -3.43067 0 -8.25749 -3.30445 0 -8.32423 -3.1178 0 -8.35703 -3.02563 0 -8.39003 -2.93295 0 -8.49813 -2.82862 0 -8.64839 -2.79066 0 -8.77601 -2.76009 0 -8.90344 -2.73185 0 -9.03885 -2.76295 0 -9.16965 -2.8096 0 -9.26836 -2.88918 0 -9.36659 -2.96925 0 -9.38223 -3.15459 0 -9.39404 -3.34077 0 -9.40311 -3.52647 0 -9.4093 -3.71243 0 -9.41286 -3.89853 0 -9.41353 -4.08468 0 -9.41129 -4.27092 0 -9.40708 -4.45722 0 -9.37351 4.62935 0 -9.52895 4.6248 0 -9.68138 4.59381 0 -9.82458 4.53853 0 -9.95598 4.46161 0 -9.99513 4.33872 0 -10.0341 4.21488 0 -10.0724 4.09074 0 -10.1096 3.96652 0 -10.1458 3.8418 0 -10.1809 3.71647 0 -10.2148 3.59116 0 -10.2474 3.46602 0 -10.279 3.34013 0 -10.2043 3.20093 0 -10.1076 3.07738 0 -9.99258 2.9718 0 -9.88872 2.90209 0 -9.77741 2.84842 0 -9.65863 2.81054 0 -9.53515 2.791 0 -9.43606 2.81789 0 -9.33634 2.84566 0 -9.2355 2.87411 0 -9.13485 2.90272 0 -9.03394 2.9313 0 -8.93351 2.96014 0 -8.77834 3.00494 0 -8.62284 3.04901 0 -8.55072 3.15327 0 -8.56277 3.32876 0 -8.5713 3.50455 0 -8.5763 3.681 0 -8.57784 3.8577 0 -8.57806 4.03471 0 -8.6318 4.12865 0 -8.71171 4.19238 0 -8.79169 4.25641 0 -8.87123 4.32209 0 -8.95089 4.38799 0 -9.02838 4.4572 0 -9.10634 4.52711 0 -9.18524 4.5974 0 -8.84988 -0.881328 0 -8.78296 -0.986132 0 -8.68352 -1.07136 0 -8.57121 -1.13826 0 -8.45626 -1.12779 0 -8.34178 -1.11574 0 -8.22771 -1.1025 0 -8.11476 -1.08768 0 -8.00273 -1.07127 0 -7.89058 -1.05338 0 -7.77891 -1.03433 0 -7.66795 -1.01412 0 -7.55757 -0.992059 0 -7.44932 -0.965722 0 -7.36013 -0.839584 0 -7.32042 -0.669545 0 -7.28165 -0.499347 0 -7.31027 -0.365892 0 -7.35178 -0.23507 0 -7.40768 -0.109341 0 -7.4754 0.0104707 0 -7.61422 0.0994117 0 -7.75687 0.185632 0 -7.90003 0.269729 0 -8.04462 0.352096 0 -8.14077 0.40566 0 -8.23869 0.457924 0 -8.35337 0.454026 0 -8.46632 0.434543 0 -8.56196 0.380899 0 -8.65917 0.32725 0 -8.75702 0.274423 0 -8.85523 0.223025 0 -8.93982 0.179715 0 -9.02449 0.136915 0 -9.07479 0.0441094 0 -9.11436 -0.0531263 0 -9.14237 -0.153848 0 -9.15842 -0.258478 0 -9.1622 -0.363942 0 -9.15256 -0.469851 0 -9.04684 -0.603959 0 -8.94618 -0.740894 0 -8.00253 -3.65823 0 -7.92375 -3.69042 0 -7.84215 -3.70191 0 -7.76352 -3.66383 0 -7.68226 -3.60717 0 -7.59073 -3.56185 0 -7.5045 -3.50576 0 -7.41724 -3.45282 0 -7.32824 -3.40168 0 -7.24137 -3.34735 0 -7.15342 -3.2946 0 -7.06488 -3.24292 0 -6.97805 -3.19009 0 -6.89008 -3.14191 0 -6.82659 -3.07401 0 -6.80582 -2.98573 0 -6.79381 -2.93649 0 -6.823 -2.82355 0 -6.84895 -2.75559 0 -6.89556 -2.65579 0 -6.97028 -2.54938 0 -7.05616 -2.45413 0 -7.14172 -2.35975 0 -7.2239 -2.26316 0 -7.35115 -2.21387 0 -7.49872 -2.27783 0 -7.64484 -2.34909 0 -7.78723 -2.42648 0 -7.92736 -2.50715 0 -8.06369 -2.59751 0 -8.1977 -2.69105 0 -8.32923 -2.78748 0 -8.3767 -2.94005 0 -8.34386 -3.03316 0 -8.31015 -3.12755 0 -8.27617 -3.22269 0 -8.242 -3.31771 0 -8.20678 -3.41304 0 -8.15733 -3.49658 0 -8.11251 -3.5573 0 -8.06379 -3.61118 0 -9.89037 -0.385572 0 -9.94495 -0.276581 0 -10.0172 -0.177733 0 -10.1252 -0.157807 0 -10.2331 -0.137914 0 -10.3409 -0.118191 0 -10.449 -0.0984836 0 -10.5569 -0.0789883 0 -10.6652 -0.0596241 0 -10.7735 -0.0404483 0 -10.8814 -0.0215041 0 -10.9904 -0.00257086 0 -11.0996 0.0162262 0 -11.2082 0.0327402 0 -11.3264 -0.0644703 0 -11.4262 -0.179686 0 -11.5056 -0.308911 0 -11.5649 -0.456381 0 -11.5948 -0.594125 0 -11.6026 -0.735535 0 -11.5884 -0.876671 0 -11.5516 -1.01439 0 -11.4943 -1.14502 0 -11.4171 -1.26448 0 -11.3532 -1.33921 0 -11.2815 -1.40643 0 -11.2023 -1.46576 0 -11.1173 -1.51653 0 -11.0277 -1.55797 0 -10.9342 -1.58958 0 -10.8382 -1.61102 0 -10.741 -1.62211 0 -10.6427 -1.62281 0 -10.5447 -1.61293 0 -10.3852 -1.54298 0 -10.3058 -1.50704 0 -10.2327 -1.43045 0 -10.1828 -1.27684 0 -10.1257 -1.12367 0 -10.0633 -0.97246 0 -9.99638 -0.823112 0 -9.92537 -0.677788 0 -9.84829 -0.536045 0 -2.70588 2.5782 0 -2.7649 2.48723 0 -2.77185 2.36304 0 -2.71951 2.27182 0 -2.66545 2.18019 0 -2.61111 2.08814 0 -2.55688 1.99622 0 -2.50266 1.90414 0 -2.44821 1.81143 0 -2.39383 1.7185 0 -2.33962 1.6255 0 -2.28562 1.53233 0 -2.23159 1.43996 0 -2.08116 1.43333 0 -1.9312 1.45265 0 -1.78699 1.4974 0 -1.65313 1.56614 0 -1.51364 1.67505 0 -1.39913 1.81062 0 -1.31488 1.96667 0 -1.26449 2.13605 0 -1.24932 2.31901 0 -1.27275 2.50164 0 -1.33418 2.67467 0 -1.43065 2.83029 0 -1.55847 2.96107 0 -1.63265 3.01555 0 -1.71248 3.06204 0 -1.80255 3.10212 0 -1.89674 3.13165 0 -1.99354 3.15008 0 -2.09154 3.15742 0 -2.18952 3.15363 0 -2.28629 3.13849 0 -2.37723 3.03292 0 -2.46286 2.92313 0 -2.54607 2.81044 0 -2.62705 2.69515 0 -4.65429 3.34526 0 -4.7751 3.32356 0 -4.89613 3.2996 0 -5.00342 3.20276 0 -5.03915 3.09927 0 -5.07406 2.99608 0 -5.11052 2.89173 0 -5.14679 2.78796 0 -5.18337 2.68408 0 -5.22011 2.58038 0 -5.25724 2.4777 0 -5.29517 2.37536 0 -5.33203 2.27282 0 -5.30746 2.14977 0 -5.25916 2.03507 0 -5.1799 1.94599 0 -5.10089 1.8571 0 -5.00364 1.74685 0 -4.90734 1.63765 0 -4.81092 1.52794 0 -4.66595 1.46012 0 -4.55138 1.46304 0 -4.43663 1.4693 0 -4.32302 1.47794 0 -4.21023 1.49211 0 -4.09597 1.57204 0 -4.02593 1.68766 0 -3.95579 1.80504 0 -3.88751 1.92314 0 -3.82158 2.04313 0 -3.75592 2.16419 0 -3.69231 2.28556 0 -3.67804 2.43011 0 -3.76261 2.60554 0 -3.85845 2.77207 0 -3.96316 2.93098 0 -4.07411 3.07927 0 -4.1898 3.22158 0 -4.29146 3.33918 0 -4.38337 3.36456 0 -4.47686 3.37628 0 -7.83186 4.41127 0 -7.77229 4.49623 