<VTKFile type="PolyData" version="0.1" byte_order="LittleEndian">
    <PolyData>
        <Piece NumberOfPoints="180" NumberOfPolys="4">
            <CellData>
                <DataArray type="Float64" Name="area" format="ascii">
1.93494 2.06999 2.17683 1.94495 
                </DataArray>
                <DataArray type="Float64" Name="c1" format="ascii">
0.049373 0.0258083 0.0333264 0.0335778 
                </DataArray>
                <DataArray type="Float64" Name="c2" format="ascii">
0.225887 0.278563 0.232018 0.268298 
                </DataArray>
                <DataArray type="Float64" Name="grad_c1" NumberOfComponents="2" format="ascii">
0.00685714 0.00203436 0.00617003 0.00487866 0.00471617 0.0107987 0.0120266 0.000463119 
                </DataArray>
                <DataArray type="Float64" Name="grad_c2" NumberOfComponents="2" format="ascii">
-0.0308006 0.00102464 -0.0385413 -0.000828225 -0.0319248 -0.0020432 -0.0383449 0.00092542 
                </DataArray>
                <DataArray type="Float64" Name="D1" format="ascii">
20.1884 47.8887 46.4257 29.5543 
                </DataArray>
                <DataArray type="Float64" Name="D2" format="ascii">
28.1376 29.476 55.2662 32.7903 
                </DataArray>
                <DataArray type="Float64" Name="k1" format="ascii">
0.910378 0.571072 1.14395 1.54432 
                </DataArray>
                <DataArray type="Float64" Name="k2" format="ascii">
0.1 0.1 0.1 0.1 
                </DataArray>
                <DataArray type="Float64" Name="k3" format="ascii">
1 1 1 1 
                </DataArray>
                <DataArray type="Int64" Name="cell_type" format="ascii">
0 1 1 1 
                </DataArray>
                <DataArray type="Float64" Name="perimeter" format="ascii">
5.05876 5.2304 5.34923 5.08843 
                </DataArray>
                <DataArray type="Float64" Name="neighbors" format="ascii">
2 2 2 2 
                </DataArray>
            </CellData>
            <Points>
                <DataArray type="Float64" Name="Points" NumberOfComponents="3" format="ascii">
-0.8843 1.44174 0 -1.01181 1.37373 0 -1.12452 1.28635 0 -1.13449 1.1894 0 -1.14218 1.09158 0 -1.14984 0.995991 0 -1.1572 0.900612 0 -1.16423 0.805055 0 -1.17125 0.707771 0 -1.178 0.611155 0 -1.1843 0.514961 0 -1.19026 0.41826 0 -1.19601 0.320997 0 -1.20128 0.22399 0 -1.20555 0.12919 0 -1.11889 0.0443579 0 -0.987073 -0.0423039 0 -0.863837 -0.0496643 0 -0.781886 -0.0545289 0 -0.700347 -0.0588526 0 -0.618662 -0.0628893 0 -0.5362 -0.0662415 0 -0.371743 -0.0727509 0 -0.29161 -0.074214 0 -0.210021 -0.0415945 0 -0.133277 -0.000887801 0 -0.0585042 0.0477574 0 0.00921163 0.104671 0 0.0691319 0.168686 0 0.168462 0.3138 0 0.214091 0.41496 0 0.24578 0.522383 0 0.262325 0.633282 0 0.264218 0.74567 0 0.250867 0.855328 0 0.221819 0.963045 0 0.178888 1.06631 0 0.121802 1.16231 0 0.051219 1.24894 0 -0.031105 1.32533 0 -0.124075 1.39 0 -0.225414 1.44104 0 -0.33302 1.47812 0 -0.444703 1.5007 0 -0.556782 1.50785 0 -0.6685 1.50117 0 -0.778691 1.47979 0 -1.68231 -1.53926 0 -1.56679 -1.47818 0 -1.46339 -1.40129 0 -1.37294 -1.30927 0 -1.36655 -1.19676 0 -1.35976 -1.0845 0 -1.35279 -0.971892 0 -1.34545 -0.858427 0 -1.33796 -0.744825 0 -1.33018 -0.631788 0 -1.32217 -0.519536 0 -1.31418 -0.406421 0 -1.30606 -0.292505 0 -1.29992 -0.180476 0 -1.42891 -0.0649748 0 -1.56504 -0.0464678 0 -1.70163 -0.029084 0 -1.88102 -0.00223672 0 -2.05691 0.0245764 0 -2.14496 0.038073 0 -2.22878 0.0207766 0 -2.38923 -0.0414166 0 -2.53222 -0.131737 0 -2.65323 -0.248749 0 -2.74833 -0.391111 0 -2.79251 -0.488741 0 -2.82456 -0.59094 0 -2.84318 -0.697684 0 -2.84667 -0.805815 0 -2.83567 -0.911854 0 -2.81136 -1.0154 0 -2.77373 -1.11585 0 -2.72332 -1.21088 0 -2.66119 -1.29889 0 -2.58827 -1.37853 0 -2.50603 -1.44739 0 -2.41579 -1.50459 0 -2.31908 -1.54988 0 -2.217 -1.58229 0 -2.10992 -1.60118 0 -2.0004 -1.60647 0 -1.89195 -1.59819 0 -1.78552 -1.57583 0 -0.993917 -0.0519586 0 -1.14614 -0.10592 0 -1.28703 -0.183335 0 -1.29563 -0.285878 0 -1.30304 -0.390141 0 -1.3104 -0.494542 0 -1.31779 -0.597799 0 -1.32491 -0.699914 0 -1.33168 -0.800647 0 -1.33835 -0.902691 0 -1.34486 -1.00463 0 -1.3512 -1.10776 0 -1.35745 -1.21175 0 -1.36153 -1.31426 0 -1.27981 -1.42457 0 -1.18123 -1.52147 0 -1.06947 -1.60027 0 -0.968667 -1.65067 0 -0.860687 -1.68668 0 -0.747584 -1.70766 0 -0.632455 -1.71346 0 -0.517033 -1.70408 0 -0.403924 -1.67964 0 -0.295754 -1.64071 0 -0.19357 -1.58817 0 -0.0993392 -1.5236 0 -0.0148392 -1.44762 0 0.0589246 -1.3601 0 0.119801 -1.2629 0 0.166521 -1.15872 0 0.199626 -1.04956 0 0.218642 -0.937744 0 0.222084 -0.825762 0 0.210333 -0.714489 0 0.18401 -0.604554 0 0.11108 -0.439628 0 0.00250192 -0.295083 0 -0.133675 -0.175168 0 -0.292158 -0.0851553 0 -0.378071 -0.0825025 0 -0.464131 -0.0790719 0 -0.640993 -0.0719651 0 -0.818179 -0.0624675 0 -1.5535 -0.0379269 0 -1.43081 -0.0527693 0 -1.31594 0.0278187 0 -1.2176 0.126409 0 -1.21082 0.23156 0 -1.20513 0.336247 0 -1.1989 0.440337 0 -1.19233 0.545773 0 -1.18531 0.65061 0 -1.17792 0.753915 0 -1.17033 0.858559 0 -1.16242 0.963489 0 -1.1539 1.06994 0 -1.14558 1.17555 0 -1.13702 1.28378 0 -1.23272 1.38241 0 -1.34157 1.46415 0 -1.43807 1.51453 0 -1.54008 1.55291 0 -1.64565 1.5774 0 -1.75467 1.58753 0 -1.8644 1.58566 0 -1.97277 1.5691 0 -2.07772 1.53744 0 -2.17745 1.49275 0 -2.27016 1.43463 0 -2.35298 1.36551 0 -2.4248 1.28628 0 -2.4857 1.19695 0 -2.53478 1.09993 0 -2.57144 0.998212 0 -2.59439 0.893298 0 -2.60316 0.786707 0 -2.59714 0.678935 0 -2.57681 0.57411 0 -2.54273 0.472399 0 -2.46263 0.32306 0 -2.41259 0.255827 0 -2.35452 0.194172 0 -2.22103 0.0895346 0 -2.14785 0.0488795 0 -2.07373 0.037226 0 -1.92516 0.0145424 0 -1.85133 0.00338734 0 -1.77801 -0.00759438 0 -1.70389 -0.0186844 0 -1.62827 -0.028383 0 
                </DataArray>
            </Points>
            <Polys>
                <DataArray type="Int64" Name="connectivity" format="ascii">
0 1 2 3 4 5 6 7 8 9 10 11 12 13 14 15 16 17 18 19 20 21 22 23 24 25 26 27 28 29 30 31 32 33 34 35 36 37 38 39 40 41 42 43 44 45 46 47 48 49 50 51 52 53 54 55 56 57 58 59 60 61 62 63 64 65 66 67 68 69 70 71 72 73 74 75 76 77 78 79 80 81 82 83 84 85 86 87 88 89 90 91 92 93 94 95 96 97 98 99 100 101 102 103 104 105 106 107 108 109 110 111 112 113 114 115 116 117 118 119 120 121 122 123 124 125 126 127 128 129 130 131 132 133 134 135 136 137 138 139 140 141 142 143 144 145 146 147 148 149 150 151 152 153 154 155 156 157 158 159 160 161 162 163 164 165 166 167 168 169 170 171 172 173 174 175 176 177 178 179 
                </DataArray>
                <DataArray type="Int64" Name="offsets" format="ascii">
47 90 133 180 
                </DataArray>
            </Polys>
        </Piece>
    </PolyData>
</VTKFile>
