<VTKFile type="PolyData" version="0.1" byte_order="LittleEndian">
    <PolyData>
        <Piece NumberOfPoints="3292" NumberOfPolys="75">
            <CellData>
                <DataArray type="Float64" Name="area" format="ascii">
2.02479 2.66737 2.89227 1.81117 1.7478 2.18955 1.77522 1.6362 2.75543 2.3026 1.59266 1.98781 3.59912 2.3393 2.71948 2.32952 2.33535 2.40282 2.15134 1.62572 2.27997 2.4871 2.22319 1.74836 2.87037 1.96373 3.4247 2.19979 2.4599 1.72198 3.25965 1.47671 1.53825 1.51362 2.65904 2.65831 3.14243 2.68174 1.83072 1.42654 1.80793 2.77421 2.54748 2.42015 2.60105 2.13967 1.39283 2.78532 2.52415 2.14543 2.65207 2.77024 2.34154 2.42031 2.54834 1.83181 2.45892 2.37721 2.429 1.97502 1.52502 1.68668 2.17 1.69393 1.3763 2.08146 1.88388 1.7471 1.5171 1.49283 1.82543 1.79262 1.50094 1.35433 1.6956 
                </DataArray>
                <DataArray type="Float64" Name="c1" format="ascii">
0.0462991 0.0127252 0.0143694 0.0149231 0.0164051 0.00957543 0.0180396 0.0251569 0.0108327 0.0170012 0.00790784 0.0132555 0.00984965 0.0185859 0.0273812 0.0177533 0.0108111 0.0199296 0.0130154 0.0195933 0.00827042 0.0103516 0.0136383 0.0172904 0.013698 0.0121196 0.0217566 0.0298813 0.01135 0.0147056 0.0151005 0.0140223 0.0131336 0.0295398 0.0183618 0.0108556 0.00943894 0.0227487 0.0215299 0.0127795 0.0246513 0.0325636 0.0219244 0.0316634 0.00914428 0.00867638 0.00856721 0.0224702 0.015487 0.0117923 0.017607 0.0126901 0.0256409 0.0120455 0.0185811 0.0109605 0.0116483 0.0153792 0.0115207 0.012197 0.0149691 0.0132733 0.014828 0.0345335 0.0124823 0.0120886 0.0333185 0.0118946 0.0279529 0.0231469 0.0210219 0.0141511 0.0228162 0.0164814 0.0202779 
                </DataArray>
                <DataArray type="Float64" Name="c2" format="ascii">
0.490343 0.715157 0.56214 0.66538 0.700052 0.951414 0.516857 0.444558 0.951521 0.518427 0.792532 0.837725 0.626237 0.649053 0.479106 0.475898 0.908619 0.528128 0.691409 0.584449 0.888406 0.764541 0.788374 0.643819 0.614232 0.942158 0.426903 0.489961 0.798256 0.522222 0.757282 0.631963 0.768962 0.541165 0.636863 0.646581 0.865628 0.517496 0.453517 0.950409 0.436038 0.461764 0.482914 0.507838 0.765053 0.716958 0.959486 0.599545 0.637472 0.947558 0.562631 0.780442 0.535578 0.868637 0.590184 0.808609 0.710433 0.576418 0.682057 0.867676 0.714381 0.872903 0.712426 0.468068 0.939825 0.558042 0.531312 0.808493 0.445459 0.575254 0.492241 0.803046 0.545629 0.584696 0.441486 
                </DataArray>
                <DataArray type="Float64" Name="grad_c1" NumberOfComponents="2" format="ascii">
0.000897964 -5.14744e-05 0.000961533 0.00110189 0.000838539 0.00213358 0.00112105 -0.00167262 0.00210104 -0.000633102 0.000118036 0.000713801 0.000813392 0.00291101 -0.00329652 -0.00248175 0.000253957 -0.000653556 0.000103266 -0.0024611 0.000243724 0.000853458 0.00096859 0.000373401 0.000340775 0.00127533 0.0028512 0.000497169 -0.001254 0.00485647 -0.000683046 -0.00239171 0.000239843 0.000719206 0.000984051 -0.0036274 0.000712119 -0.0012531 0.0026783 0.0022195 0.00015965 0.000741729 0.000479092 0.000976746 0.00107273 -0.000745196 0.00241325 0.00107259 0.00112896 0.00170002 0.00023862 0.000356239 -0.00199685 -0.000876513 -0.000625837 -0.00839456 0.000558961 -0.000964717 0.000521874 0.00230574 0.00147916 9.9679e-05 0.000984977 -0.00160087 0.00101838 0.000815723 0.0075397 0.00239724 0.00242362 -0.00163784 0.000606992 0.00129838 0.000299067 0.00077299 0.00122312 0.00402391 -0.00168517 -0.00270029 0.000339264 0.000134102 -0.00305358 0.000387969 -0.00655888 0.00361619 -0.00069519 -0.0038479 0.00391092 0.00756211 0.000344642 0.000922562 0.000336758 0.000973084 8.51951e-05 0.000604101 0.00438956 -0.000676514 0.00161554 0.0016011 0.00026698 -0.000597399 0.00165603 0.00253416 0.000784702 -0.000992503 0.00310181 -0.00569137 0.00062556 -0.000634522 0.00177339 -0.00281316 0.000525029 0.000855742 0.00041747 -0.00124334 0.000500982 -0.00195107 0.00070797 0.00124559 0.000527792 0.00055468 0.00148173 -0.00115098 0.00090452 0.000190692 0.00142023 0.00083301 -0.00752217 -0.00632582 0.000315436 0.000166188 0.000456896 0.00171431 0.00920461 -0.00478216 0.00063052 0.000750525 -0.00501126 -0.00116653 0.00439192 0.00187479 8.69342e-05 0.00308177 0.000990006 -0.000433719 0.00305033 0.00333564 0.00106966 -0.00205885 -0.0011543 -0.0020082 
                </DataArray>
                <DataArray type="Float64" Name="grad_c2" NumberOfComponents="2" format="ascii">
-0.0238145 0.00288592 -0.057375 -0.00856833 -0.0303248 -0.0127253 -0.0589366 0.0168619 -0.0592587 0.00461748 -0.0736816 -0.00896868 -0.01992 -0.00669063 -0.0153321 0.00519665 -0.0526971 0.0125581 -0.0259652 0.0209126 -0.0536951 -0.0154975 -0.0685478 0.00514221 -0.0430325 -0.0212297 -0.0546902 0.00729112 -0.0164618 -0.00904422 -0.0203541 0.0155687 -0.0859786 -0.00697653 -0.0263706 0.0153667 -0.0576198 0.0280001 -0.0448049 -0.000160483 -0.0586186 -0.0204689 -0.0604702 -0.0234752 -0.0671101 0.0126127 -0.0509699 -0.00324591 -0.043183 -0.0124871 -0.0898572 -0.00131985 -0.00845155 0.00424581 -0.0250756 0.0072913 -0.0631772 0.0285841 -0.021353 -0.00988467 -0.0700533 0.00449979 -0.0322195 0.0285722 -0.064512 0.00684316 -0.0391847 0.00317898 -0.0521785 0.00896794 -0.043668 -0.0266641 -0.063199 -0.020939 -0.0250841 -0.00568696 -0.0159634 0.00739139 -0.0720546 0.0150743 -0.0123206 -0.00327104 -0.0145577 -0.00298331 -0.0224708 0.0124925 -0.0265225 -0.0074387 -0.0574649 -0.0259173 -0.0490539 -0.0228149 -0.05483 -0.0187539 -0.0465284 0.00443993 -0.0516241 -0.00228055 -0.0676181 0.00388015 -0.0296475 -0.00697526 -0.0665046 0.0226321 -0.0348572 0.00386234 -0.0630999 0.0216238 -0.0443233 0.0106257 -0.0663409 -0.0170794 -0.0566274 0.0268622 -0.035585 0.0297123 -0.0568921 -0.0211961 -0.0815319 0.00215832 -0.060578 0.0171526 -0.0655931 0.0172139 -0.0645899 0.00201173 -0.0188805 0.00157708 -0.0876619 0.00197194 -0.0315534 -0.0189429 -0.0353532 0.0073707 -0.0722419 -0.00341691 -0.016178 -0.0021649 -0.0416378 0.00126136 -0.0170869 -0.00882612 -0.0808595 0.00349809 -0.0281348 -0.00647088 -0.0360306 0.0265484 -0.00362521 0.00452332 
                </DataArray>
                <DataArray type="Float64" Name="D1" format="ascii">
20.1884 47.8887 46.4257 29.5543 23.66 26.9155 31.6639 27.4076 30.8932 41.7876 28.6995 27.0936 25.8601 46.5973 31.4408 35.0437 37.913 16.8386 22.4411 28.3868 31.9534 36.3592 34.0147 20.1184 48.0826 38.3651 47.2917 29.8961 38.9749 43.0421 26.8686 32.3324 29.6121 52.4272 42.8323 25.5713 28.1693 45.098 44.1968 28.4491 30.3703 41.505 32.6894 22.6517 35.3618 31.9818 24.0428 32.7424 26.7175 29.508 44.3121 28.2242 27.8128 26.5813 30.8246 46.914 48.7844 41.4616 31.3182 28.2595 20.2364 40.5486 24.6711 47.482 32.0649 44.6824 52.2158 47.3894 32.4518 52.2923 18.3945 42.4468 31.6307 29.1673 19.9129 
                </DataArray>
                <DataArray type="Float64" Name="D2" format="ascii">
28.1376 29.476 55.2662 32.7903 26.1502 20.7843 31.7025 33.9204 29.999 25.2094 41.1061 34.7848 33.2469 38.6467 34.7848 56.3213 22.3241 25.0052 21.7317 17.7694 45.6173 35.0981 35.203 30.2212 14.9015 18.5881 34.7508 28.0313 24.2088 26.0686 28.7328 30.8758 30.5008 53.0714 18.1999 22.0737 37.4859 35.7535 23.7409 30.8278 21.4514 27.9131 23.3293 14.4624 29.8897 37.7594 29.304 28.5592 39.9196 26.3448 27.5206 49.805 30.1134 19.3908 37.1173 27.7042 52.5175 26.5361 31.9319 30.1957 27.006 30.3275 28.4724 19.6285 23.2588 18.6695 35.0552 19.8417 50.5155 42.4682 44.448 44.9619 36.4719 27.3981 28.0952 
                </DataArray>
                <DataArray type="Float64" Name="k1" format="ascii">
0.910378 0.571072 1.14395 1.54432 0.926629 1.25016 0.575564 1.55852 0.945503 0.860941 0.791226 0.616893 1.05281 1.17647 0.817944 0.63907 0.482176 1.56031 0.91796 0.830993 0.79104 0.957837 0.807719 1.03161 1.08356 0.877557 1.01713 0.934678 0.868774 1.64607 0.737187 1.13232 0.856645 1.08628 0.597704 0.754089 0.758816 0.893221 0.690579 1.14494 1.4856 0.921894 1.55448 1.14625 1.25886 1.23837 0.981043 1.37766 1.11592 1.33894 0.934055 1.04397 0.879296 1.21283 1.39915 0.756872 0.755242 0.89103 1.19026 0.871086 0.529083 1.22767 1.03069 1.1488 1.81727 1.21152 0.847017 0.734935 0.662995 1.28191 0.860585 1.36496 0.886109 0.658994 0.53553 
                </DataArray>
                <DataArray type="Float64" Name="k2" format="ascii">
0.1 0.1 0.1 0.1 0.1 0.1 0.1 0.1 0.1 0.1 0.1 0.1 0.1 0.1 0.1 0.1 0.1 0.1 0.1 0.1 0.1 0.1 0.1 0.1 0.1 0.1 0.1 0.1 0.1 0.1 0.1 0.1 0.1 0.1 0.1 0.1 0.1 0.1 0.1 0.1 0.1 0.1 0.1 0.1 0.1 0.1 0.1 0.1 0.1 0.1 0.1 0.1 0.1 0.1 0.1 0.1 0.1 0.1 0.1 0.1 0.1 0.1 0.1 0.1 0.1 0.1 0.1 0.1 0.1 0.1 0.1 0.1 0.1 0.1 0.1 
                </DataArray>
                <DataArray type="Float64" Name="k3" format="ascii">
1 1 1 1 1 1 1 1 1 1 1 1 1 1 1 1 1 1 1 1 1 1 1 1 1 1 1 1 1 1 1 1 1 1 1 1 1 1 1 1 1 1 1 1 1 1 1 1 1 1 1 1 1 1 1 1 1 1 1 1 1 1 1 1 1 1 1 1 1 1 1 1 1 1 1 
                </DataArray>
                <DataArray type="Int64" Name="cell_type" format="ascii">
0 1 1 1 1 2 1 1 1 1 2 1 2 1 1 1 1 1 1 1 2 1 1 1 1 1 1 1 1 1 1 1 1 1 1 1 2 1 1 1 1 1 1 1 2 2 2 1 1 1 1 1 1 1 1 1 1 1 1 1 1 1 1 1 1 1 1 1 1 1 1 1 1 1 1 
                </DataArray>
                <DataArray type="Float64" Name="perimeter" format="ascii">
5.3019 6.13319 6.24825 5.21207 4.90744 5.68866 4.95401 4.80121 5.99349 5.54202 4.59487 5.21455 6.87889 5.71152 6.06248 5.60643 5.80459 5.75127 5.38723 4.73713 5.56772 5.90928 5.66874 4.8865 6.34555 5.40121 6.70211 5.60851 5.7497 4.76313 6.65113 4.57819 4.63863 4.51581 6.05074 6.07121 6.6664 6.09041 5.15977 4.33146 5.01712 6.2037 5.87585 5.69513 6.03593 5.30841 4.34575 6.30195 5.902 5.34648 6.1542 6.10592 5.69325 5.73085 5.9087 4.97544 5.74391 5.60642 6.00503 5.46427 4.70707 4.74997 5.60797 4.81986 4.29429 5.26501 5.1324 4.90445 4.59542 4.53872 4.87473 4.95921 4.60222 4.48551 5.10564 
                </DataArray>
                <DataArray type="Float64" Name="neighbors" format="ascii">
5 7 6 7 7 3 5 5 2 4 2 5 3 5 4 3 5 6 5 5 3 5 5 4 5 3 4 6 3 3 6 5 4 4 5 6 6 6 4 2 3 5 5 5 6 4 3 6 6 2 7 6 4 4 4 5 3 4 5 5 5 4 5 5 4 3 5 5 5 5 3 3 5 5 3 
                </DataArray>
            </CellData>
            <Points>
                <DataArray type="Float64" Name="Points" NumberOfComponents="3" format="ascii">
-5.96181 2.45583 0 -6.08954 2.48623 0 -6.21639 2.51366 0 -6.31248 2.46527 0 -6.36211 2.37548 0 -6.41282 2.28702 0 -6.46186 2.20064 0 -6.51217 2.11494 0 -6.56267 2.02844 0 -6.6135 1.9414 0 -6.66516 1.85383 0 -6.71817 1.76687 0 -6.77236 1.67999 0 -6.82738 1.59306 0 -6.81475 1.46363 0 -6.77843 1.33824 0 -6.72747 1.22296 0 -6.68147 1.14449 0 -6.62646 1.06814 0 -6.47096 0.990626 0 -6.31304 0.909237 0 -6.1574 0.826467 0 -6.00483 0.7426 0 -5.85126 0.655438 0 -5.72163 0.678058 0 -5.59964 0.728605 0 -5.52941 0.77327 0 -5.46646 0.827776 0 -5.43634 0.91981 0 -5.40604 1.01015 0 -5.37623 1.09932 0 -5.34827 1.18746 0 -5.29343 1.36315 0 -5.23848 1.53954 0 -5.21223 1.62573 0 -5.18885 1.71383 0 -5.28448 1.81594 0 -5.37917 1.91876 0 -5.46632 2.02552 0 -5.55178 2.13313 0 -5.63401 2.24587 0 -5.71395 2.35877 0 -5.79577 2.43274 0 -5.8806 2.43715 0 -10.5306 -3.29415 0 -10.4436 -3.21796 0 -10.3773 -3.07386 0 -10.3325 -2.922 0 -10.3106 -2.76685 0 -10.3761 -2.65435 0 -10.4397 -2.54116 0 -10.5008 -2.42822 0 -10.5587 -2.31341 0 -10.6144 -2.1949 0 -10.6674 -2.07467 0 -10.7175 -1.95473 0 -10.7645 -1.83566 0 -10.8067 -1.7162 0 -10.9057 -1.61389 0 -11.0085 -1.59531 0 -11.1152 -1.57809 0 -11.2726 -1.55421 0 -11.4395 -1.6104 0 -11.5009 -1.69297 0 -11.5654 -1.77137 0 -11.7048 -1.91084 0 -11.8058 -2.00272 0 -11.8805 -2.15261 0 -11.8996 -2.28961 0 -11.9275 -2.42765 0 -11.9603 -2.56481 0 -11.9998 -2.70228 0 -11.9801 -2.86306 0 -11.9168 -2.99258 0 -11.861 -3.12245 0 -11.8099 -3.25405 0 -11.7683 -3.38634 0 -11.7361 -3.51979 0 -11.7126 -3.65415 0 -11.6231 -3.73585 0 -11.5154 -3.746 0 -11.4085 -3.7576 0 -11.2704 -3.77657 0 -11.1321 -3.7979 0 -10.9741 -3.75432 0 -10.8688 -3.63315 0 -10.7603 -3.51616 0 -10.6481 -3.40162 0 -6.87996 -3.09298 0 -6.97464 -3.05879 0 -7.07288 -3.04403 0 -7.17072 -3.09115 0 -7.26669 -3.13883 0 -7.36319 -3.18694 0 -7.45979 -3.23752 0 -7.55751 -3.2888 0 -7.65723 -3.34117 0 -7.75416 -3.39184 0 -7.84789 -3.44083 0 -7.94115 -3.49002 0 -8.03703 -3.54115 0 -8.13097 -3.59392 0 -8.17118 -3.7752 0 -8.21387 -3.9551 0 -8.25915 -4.13798 0 -8.2892 -4.25578 0 -8.32166 -4.36914 0 -8.3294 -4.48323 0 -8.32266 -4.59676 0 -8.26545 -4.67976 0 -8.20626 -4.76241 0 -8.147 -4.84509 0 -8.08475 -4.92709 0 -8.0213 -5.01029 0 -7.95662 -5.09266 0 -7.8567 -5.13402 0 -7.75129 -5.16441 0 -7.64344 -5.18225 0 -7.53451 -5.18622 0 -7.42665 -5.17572 0 -7.32119 -5.15181 0 -7.2115 -5.08032 0 -7.10086 -5.00806 0 -6.99208 -4.93707 0 -6.88229 -4.86581 0 -6.77222 -4.79541 0 -6.68299 -4.68996 0 -6.60629 -4.5735 0 -6.57779 -4.45598 0 -6.54828 -4.341 0 -6.51719 -4.22731 0 -6.48564 -4.11482 0 -6.45315 -4.00329 0 -6.44329 -3.88008 0 -6.45104 -3.75885 0 -6.55246 -3.61152 0 -6.62353 -3.5061 0 -6.68864 -3.40062 0 -6.75374 -3.29686 0 -6.8184 -3.19363 0 -10.4514 5.57086 0 -10.4949 5.47687 0 -10.4901 5.37621 0 -10.4726 5.27948 0 -10.4101 5.2165 0 -10.35 5.1536 0 -10.2923 5.08793 0 -10.2341 5.02208 0 -10.1789 4.95323 0 -10.1216 4.88189 0 -10.0717 4.80833 0 -10.0206 4.73606 0 -9.90732 4.70105 0 -9.79497 4.72192 0 -9.68386 4.74493 0 -9.58344 4.75925 0 -9.49383 4.77308 0 -9.40969 4.854 0 -9.33697 4.93207 0 -9.28105 5.01817 0 -9.22235 5.1017 0 -9.16457 5.17641 0 -9.09895 5.25539 0 -9.03 5.33406 0 -8.96296 5.40576 0 -8.89048 5.47624 0 -8.81533 5.55264 0 -8.7423 5.62502 0 -8.69786 5.73915 0 -8.66546 5.83576 0 -8.67791 5.93036 0 -8.73768 6.04658 0 -8.84942 6.13179 0 -8.97414 6.16758 0 -9.09069 6.14528 0 -9.20267 6.12427 0 -9.31453 6.1061 0 -9.42868 6.09154 0 -9.54123 6.08073 0 -9.65287 6.07373 0 -9.76545 6.06692 0 -9.87999 6.06391 0 -9.99049 6.06422 0 -10.1003 6.06681 0 -10.2115 6.07445 0 -10.293 5.9071 0 -10.3735 5.73839 0 -11.1453 3.67235 0 -11.2341 3.6148 0 -11.3197 3.55928 0 -11.3877 3.45325 0 -11.3914 3.35157 0 -11.3946 3.25589 0 -11.3977 3.157 0 -11.4027 3.05796 0 -11.4106 2.95894 0 -11.4212 2.86022 0 -11.4304 2.76525 0 -11.4394 2.67083 0 -11.4536 2.57319 0 -11.4705 2.4788 0 -11.4105 2.38691 0 -11.3226 2.32554 0 -11.2315 2.26212 0 -11.1199 2.18274 0 -11.0163 2.10748 0 -10.9159 2.02961 0 -10.7794 1.97886 0 -10.6347 1.96308 0 -10.4935 2.04109 0 -10.3937 2.09634 0 -10.294 2.14881 0 -10.2206 2.24123 0 -10.1598 2.34348 0 -10.1132 2.45435 0 -10.0957 2.57179 0 -10.0778 2.69291 0 -10.0623 2.81391 0 -10.1762 2.97044 0 -10.2856 3.13092 0 -10.3922 3.2907 0 -10.4969 3.45344 0 -10.6382 3.57232 0 -10.7834 3.59843 0 -10.9651 3.63432 0 -14.9819 -5.3234 0 -14.9343 -5.43122 0 -14.8608 -5.52448 0 -14.7654 -5.59718 0 -14.6541 -5.64404 0 -14.5551 -5.6102 0 -14.456 -5.57361 0 -14.3586 -5.53442 0 -14.2626 -5.49325 0 -14.1678 -5.44958 0 -14.0738 -5.40151 0 -13.9802 -5.35097 0 -13.8899 -5.29681 0 -13.8221 -5.15862 0 -13.7895 -4.99434 0 -13.7594 -4.82995 0 -13.7313 -4.66558 0 -13.7118 -4.54712 0 -13.6921 -4.42897 0 -13.7156 -4.30645 0 -13.7611 -4.19012 0 -13.8346 -4.11156 0 -13.9086 -4.03392 0 -13.9841 -3.95785 0 -14.0615 -3.88606 0 -14.1924 -3.76801 0 -14.3261 -3.65446 0 -14.4627 -3.54575 0 -14.597 -3.43979 0 -14.7326 -3.47162 0 -14.8488 -3.54387 0 -14.9378 -3.64827 0 -14.9898 -3.77282 0 -15.0001 -3.90665 0 -15.0002 -4.04306 0 -15.0003 -4.18042 0 -15.0003 -4.31946 0 -15.0003 -4.45971 0 -15.0003 -4.60011 0 -15.0003 -4.74043 0 -15.0003 -4.8806 0 -15.0003 -5.02183 0 -15.0002 -5.16486 0 -5.27084 -3.41415 0 -5.23771 -3.30541 0 -5.22119 -3.1972 0 -5.21774 -3.08824 0 -5.27643 -3.01699 0 -5.33539 -2.94483 0 -5.39411 -2.87505 0 -5.45474 -2.80071 0 -5.51553 -2.73103 0 -5.57179 -2.66053 0 -5.62585 -2.58968 0 -5.67989 -2.51999 0 -5.7339 -2.45048 0 -5.7846 -2.38498 0 -5.89299 -2.37196 0 -5.98637 -2.39747 0 -6.08943 -2.42612 0 -6.22165 -2.46505 0 -6.35388 -2.50525 0 -6.48056 -2.54345 0 -6.6135 -2.58314 0 -6.74301 -2.62107 0 -6.8744 -2.6605 0 -6.8943 -2.76883 0 -6.90138 -2.8745 0 -6.89159 -2.98069 0 -6.87283 -3.08345 0 -6.82402 -3.16544 0 -6.77322 -3.24707 0 -6.69405 -3.37303 0 -6.61436 -3.50196 0 -6.53193 -3.6239 0 -6.44717 -3.74688 0 -6.32955 -3.81873 0 -6.22912 -3.81285 0 -6.13365 -3.80666 0 -6.03399 -3.79924 0 -5.93644 -3.79177 0 -5.84078 -3.78468 0 -5.74074 -3.77672 0 -5.644 -3.76923 0 -5.54485 -3.76096 0 -5.46068 -3.68939 0 -5.3843 -3.59842 0 -5.32283 -3.50935 0 -4.19292 2.73351 0 -4.1576 2.61996 0 -4.12109 2.5043 0 -4.03179 2.42948 0 -3.93715 2.42254 0 -3.84225 2.41577 0 -3.74743 2.40802 0 -3.65267 2.39973 0 -3.55718 2.39077 0 -3.45937 2.38128 0 -3.36609 2.3718 0 -3.27171 2.36181 0 -3.17476 2.35166 0 -3.07539 2.33977 0 -2.9745 2.32682 0 -2.88128 2.37244 0 -2.8039 2.43621 0 -2.77586 2.52859 0 -2.75392 2.62233 0 -2.7376 2.7201 0 -2.7248 2.81609 0 -2.70754 2.91496 0 -2.68755 3.02755 0 -2.69348 3.14934 0 -2.73883 3.24972 0 -2.8192 3.34713 0 -2.93654 3.44314 0 -3.06799 3.44845 0 -3.17492 3.43299 0 -3.28413 3.45721 0 -3.39919 3.50188 0 -3.51461 3.54787 0 -3.6314 3.58814 0 -3.7525 3.623 0 -3.87281 3.64777 0 -4.02273 3.55139 0 -4.1483 3.4205 0 -4.23921 3.26602 0 -4.29245 3.09496 0 -4.2655 2.9829 0 -4.23521 2.87181 0 -15.0002 6.15239 0 -14.9888 5.99524 0 -14.9487 5.84317 0 -14.8814 5.70127 0 -14.7887 5.57422 0 -14.6925 5.56758 0 -14.5954 5.56262 0 -14.4979 5.55658 0 -14.3995 5.54955 0 -14.3004 5.54131 0 -14.2008 5.53203 0 -14.1008 5.52181 0 -14.0011 5.51017 0 -13.9014 5.49806 0 -13.7896 5.53753 0 -13.6866 5.59611 0 -13.6107 5.70032 0 -13.5054 5.84094 0 -13.3948 5.97772 0 -13.2815 6.11438 0 -13.1668 6.2511 0 -13.151 6.36064 0 -13.1489 6.47185 0 -13.1604 6.58314 0 -13.1852 6.69307 0 -13.2228 6.79981 0 -13.2727 6.9013 0 -13.3507 7.0171 0 -13.4453 7.11949 0 -13.5543 7.20652 0 -13.674 7.27986 0 -13.7681 7.31564 0 -13.8643 7.34544 0 -13.9637 7.36394 0 -14.0645 7.3684 0 -14.2637 7.35498 0 -14.4545 7.29659 0 -14.6272 7.19869 0 -14.7737 7.06705 0 -14.8877 6.90823 0 -14.9644 6.72913 0 -15.0001 6.53829 0 -15.0001 6.34473 0 -5.32956 7.18607 0 -5.49042 7.17394 0 -5.64582 7.13779 0 -5.7933 7.07594 0 -5.83185 6.96885 0 -5.8671 6.86149 0 -5.90098 6.7543 0 -5.93398 6.64495 0 -5.96597 6.53579 0 -5.99802 6.42811 0 -6.02934 6.31922 0 -6.05901 6.21207 0 -6.08906 6.10775 0 -6.11734 6.00644 0 -6.06936 5.88353 0 -5.98644 5.80321 0 -5.90272 5.72307 0 -5.82481 5.64824 0 -5.74715 5.57379 0 -5.6671 5.4978 0 -5.51387 5.45212 0 -5.38641 5.47685 0 -5.26011 5.50113 0 -5.13396 5.52579 0 -5.00703 5.54905 0 -4.87898 5.57135 0 -4.75035 5.59207 0 -4.64053 5.66494 0 -4.60327 5.75979 0 -4.56735 5.85515 0 -4.52441 5.97 0 -4.48194 6.08483 0 -4.44135 6.19872 0 -4.40237 6.3118 0 -4.36424 6.42409 0 -4.32871 6.53644 0 -4.40876 6.68602 0 -4.51296 6.82081 0 -4.60481 6.91042 0 -4.70718 6.98988 0 -4.81884 7.058 0 -4.93857 7.1132 0 -5.06497 7.15373 0 -5.19618 7.17816 0 -10.2482 -8.26307 0 -10.1623 -8.18668 0 -10.0886 -8.09834 0 -10.0286 -8.00012 0 -10.0468 -7.91065 0 -10.0664 -7.82279 0 -10.0862 -7.73556 0 -10.1064 -7.64895 0 -10.1269 -7.56317 0 -10.1478 -7.4773 0 -10.1693 -7.39198 0 -10.1911 -7.30738 0 -10.2136 -7.22298 0 -10.2365 -7.13967 0 -10.2597 -7.05686 0 -10.3302 -7.01321 0 -10.4055 -6.98086 0 -10.5338 -7.0016 0 -10.6603 -7.02636 0 -10.7861 -7.05366 0 -10.9117 -7.08322 0 -11.0366 -7.115 0 -11.1613 -7.14912 0 -11.2856 -7.18707 0 -11.3736 -7.30804 0 -11.4353 -7.44494 0 -11.4675 -7.59201 0 -11.471 -7.7052 0 -11.4568 -7.81813 0 -11.4253 -7.92779 0 -11.3771 -8.03147 0 -11.3134 -8.12659 0 -11.2361 -8.21099 0 -11.178 -8.26027 0 -11.1151 -8.30374 0 -10.9781 -8.37103 0 -10.83 -8.4099 0 -10.6766 -8.4185 0 -10.5245 -8.39627 0 -10.3796 -8.34383 0 -12.5187 0.880407 0 -12.5848 0.965664 0 -12.6721 1.01737 0 -12.7688 1.04862 0 -12.8629 1.04187 0 -12.958 1.03442 0 -13.053 1.02687 0 -13.1457 1.02102 0 -13.2383 1.01539 0 -13.3321 1.0197 0 -13.4242 1.02419 0 -13.5163 1.03098 0 -13.6068 1.03957 0 -13.6972 1.04717 0 -13.7605 0.970271 0 -13.7887 0.862133 0 -13.8173 0.754709 0 -13.8555 0.613623 0 -13.8939 0.473081 0 -13.8719 0.281044 0 -13.7975 0.0990666 0 -13.7415 -0.0290147 0 -13.6546 -0.136614 0 -13.5654 -0.165171 0 -13.4744 -0.193015 0 -13.3878 -0.219829 0 -13.2999 -0.251087 0 -13.2112 -0.284433 0 -13.1223 -0.31827 0 -13.0318 -0.352611 0 -12.9448 -0.39244 0 -12.8588 -0.432613 0 -12.7679 -0.472937 0 -12.6434 -0.438752 0 -12.5256 -0.383031 0 -12.4198 -0.300588 0 -12.3295 -0.193742 0 -12.2589 -0.0761042 0 -12.2127 0.0457421 0 -12.1829 0.214084 0 -12.1825 0.379896 0 -12.2716 0.509285 0 -12.3498 0.63725 0 -12.4335 0.764604 0 -6.64047 -7.03397 0 -6.60507 -6.86321 0 -6.59578 -6.68896 0 -6.61434 -6.51383 0 -6.71672 -6.42665 0 -6.81609 -6.3395 0 -6.9128 -6.25186 0 -7.00717 -6.16488 0 -7.09847 -6.07712 0 -7.18673 -5.98772 0 -7.27324 -5.89531 0 -7.35816 -5.80145 0 -7.44061 -5.70666 0 -7.58448 -5.67165 0 -7.7318 -5.65941 0 -7.88151 -5.67038 0 -8.02814 -5.70645 0 -8.11271 -5.78562 0 -8.1969 -5.86511 0 -8.28062 -5.94509 0 -8.36397 -6.02468 0 -8.44637 -6.10513 0 -8.52854 -6.1861 0 -8.61044 -6.26695 0 -8.69236 -6.34756 0 -8.77456 -6.42804 0 -8.85609 -6.50796 0 -8.88594 -6.63099 0 -8.84499 -6.74867 0 -8.80564 -6.8682 0 -8.7671 -6.98851 0 -8.72962 -7.10982 0 -8.6937 -7.23092 0 -8.66469 -7.3334 0 -8.60242 -7.42481 0 -8.53143 -7.50856 0 -8.45274 -7.58592 0 -8.36639 -7.6552 0 -8.27285 -7.71533 0 -8.17341 -7.76655 0 -8.06865 -7.80727 0 -7.95904 -7.83677 0 -7.84598 -7.85538 0 -7.73132 -7.86173 0 -7.61668 -7.85528 0 -7.42922 -7.81944 0 -7.33829 -7.78855 0 -7.25026 -7.74982 0 -7.16585 -7.70427 0 -7.08543 -7.65178 0 -7.00912 -7.59285 0 -6.93773 -7.52793 0 -6.87175 -7.45775 0 -6.81199 -7.38159 0 -6.71144 -7.21552 0 -9.13487 0.969849 0 -9.09721 1.06537 0 -9.11342 1.19679 0 -9.19892 1.286 0 -9.2828 1.37207 0 -9.36805 1.45713 0 -9.4533 1.54129 0 -9.53769 1.62515 0 -9.62203 1.7089 0 -9.70482 1.79274 0 -9.78818 1.87708 0 -9.87492 1.96267 0 -9.96322 2.04555 0 -10.0519 2.12689 0 -10.1695 2.1413 0 -10.2864 2.14063 0 -10.3811 2.09176 0 -10.5065 2.02251 0 -10.6374 1.9501 0 -10.6993 1.86995 0 -10.7535 1.78719 0 -10.7596 1.69124 0 -10.7673 1.60092 0 -10.7759 1.50749 0 -10.7846 1.41422 0 -10.7921 1.32152 0 -10.7995 1.22936 0 -10.8062 1.1347 0 -10.8127 1.03955 0 -10.8174 0.945539 0 -10.8217 0.848483 0 -10.8256 0.753763 0 -10.8292 0.656242 0 -10.7609 0.581254 0 -10.6846 0.51448 0 -10.5991 0.455039 0 -10.5074 0.407248 0 -10.3386 0.404615 0 -10.2406 0.402766 0 -10.1417 0.395458 0 -10.0438 0.385345 0 -9.94659 0.372916 0 -9.79288 0.347257 0 -9.63626 0.316494 0 -9.50861 0.343928 0 -9.39543 0.400657 0 -9.29799 0.483919 0 -9.25951 0.608691 0 -9.22081 0.729433 0 -9.17943 0.8498 0 -4.01727 -0.602651 0 -4.03999 -0.462645 0 -4.08533 -0.326467 0 -4.15053 -0.199924 0 -4.27052 -0.152258 0 -4.38707 -0.10232 0 -4.50268 -0.0498723 0 -4.62112 0.00476865 0 -4.73629 0.0560313 0 -4.8486 0.108192 0 -4.96221 0.165643 0 -5.07465 0.223617 0 -5.18573 0.281139 0 -5.29796 0.340144 0 -5.4208 0.315503 0 -5.53956 0.270811 0 -5.6504 0.208133 0 -5.68242 0.110356 0 -5.7148 0.0117245 0 -5.74787 -0.0866522 0 -5.7822 -0.183861 0 -5.81628 -0.280368 0 -5.85164 -0.374225 0 -5.88806 -0.464971 0 -5.9278 -0.555705 0 -5.97006 -0.649688 0 -5.95504 -0.756041 0 -5.89394 -0.841575 0 -5.83163 -0.9296 0 -5.771 -1.01849 0 -5.70725 -1.11562 0 -5.64509 -1.21121 0 -5.58342 -1.30971 0 -5.52036 -1.40937 0 -5.42432 -1.48879 0 -5.31882 -1.55828 0 -5.22175 -1.56306 0 -5.12441 -1.56633 0 -5.02938 -1.57058 0 -4.93751 -1.57347 0 -4.84338 -1.57754 0 -4.74872 -1.58277 0 -4.65854 -1.58756 0 -4.55055 -1.54672 0 -4.45328 -1.486 0 -4.36238 -1.42099 0 -4.28043 -1.34405 0 -4.20552 -1.25553 0 -4.1256 -1.13578 0 -4.06755 -1.00319 0 -4.02898 -0.872446 0 -4.01349 -0.740424 0 -4.0484 4.99775 0 -3.96049 4.89542 0 -3.84073 4.86079 0 -3.74653 4.90848 0 -3.65179 4.95674 0 -3.55841 5.00473 0 -3.46562 5.05345 0 -3.37296 5.10372 0 -3.27959 5.1584 0 -3.17532 5.19592 0 -3.07361 5.22029 0 -2.98086 5.24297 0 -2.90037 5.29195 0 -2.85121 5.45582 0 -2.81386 5.57693 0 -2.7861 5.7014 0 -2.79782 5.84749 0 -2.82509 5.94652 0 -2.86365 6.04229 0 -2.91205 6.13461 0 -2.97032 6.22249 0 -3.03809 6.30451 0 -3.11443 6.37945 0 -3.19801 6.44664 0 -3.28769 6.50525 0 -3.38234 6.55499 0 -3.48164 6.59481 0 -3.5844 6.62435 0 -3.68981 6.64273 0 -3.79707 6.65024 0 -3.90526 6.64706 0 -4.01287 6.63343 0 -4.11847 6.60953 0 -4.22081 6.57492 0 -4.31811 6.52923 0 -4.35438 6.42218 0 -4.39078 6.31489 0 -4.42768 6.20761 0 -4.4658 6.09998 0 -4.50585 5.99136 0 -4.5465 5.88237 0 -4.58734 5.77382 0 -4.62812 5.66531 0 -4.59247 5.54525 0 -4.49916 5.45459 0 -4.4063 5.36412 0 -4.31358 5.27346 0 -4.22155 5.1832 0 -4.13252 5.09146 0 -13.6061 -4.22864 0 -13.5177 -4.17022 0 -13.4291 -4.11235 0 -13.3639 -4.02028 0 -13.3174 -3.9179 0 -13.3124 -3.81606 0 -13.3076 -3.71361 0 -13.2956 -3.61146 0 -13.2836 -3.50979 0 -13.2674 -3.40672 0 -13.249 -3.30508 0 -13.2304 -3.20405 0 -13.2045 -3.10803 0 -13.179 -3.01292 0 -13.1867 -2.91137 0 -13.2138 -2.81002 0 -13.2857 -2.72197 0 -13.386 -2.59454 0 -13.4771 -2.4614 0 -13.5615 -2.32846 0 -13.6382 -2.19147 0 -13.7853 -2.08946 0 -13.9752 -2.06899 0 -14.1672 -2.04509 0 -14.3259 -2.13503 0 -14.4669 -2.25095 0 -14.5821 -2.39112 0 -14.6673 -2.55112 0 -14.7209 -2.72494 0 -14.741 -2.90527 0 -14.7264 -3.08581 0 -14.6791 -3.26105 0 -14.6016 -3.42369 0 -14.5097 -3.49506 0 -14.3794 -3.59929 0 -14.2487 -3.70442 0 -14.1224 -3.81807 0 -13.9951 -3.9326 0 -13.8751 -4.05373 0 -13.7573 -4.17926 0 -7.46451 5.18137 0 -7.4479 5.02232 0 -7.40147 4.86817 0 -7.32895 4.71895 0 -7.21684 4.66558 0 -7.10553 4.61151 0 -6.99638 4.55467 0 -6.88858 4.49538 0 -6.78448 4.43406 0 -6.68517 4.37072 0 -6.58766 4.30308 0 -6.49064 4.23157 0 -6.39713 4.15954 0 -6.31024 4.08697 0 -6.19395 4.08488 0 -6.09387 4.15478 0 -5.99509 4.22445 0 -5.8782 4.30426 0 -5.77353 4.45678 0 -5.7449 4.62644 0 -5.71707 4.79699 0 -5.68789 4.96912 0 -5.65891 5.14127 0 -5.62952 5.31295 0 -5.68052 5.49681 0 -5.76003 5.57227 0 -5.83862 5.64766 0 -5.95649 5.7608 0 -6.07432 5.87347 0 -6.22433 5.93823 0 -6.36658 5.94127 0 -6.50866 5.94125 0 -6.65564 5.9413 0 -6.80574 5.94026 0 -6.94207 5.89152 0 -7.03506 5.75078 0 -7.13508 5.60796 0 -7.24224 5.46489 0 -7.35115 5.32655 0 -8.79238 7.09911 0 -8.81442 7.20823 0 -8.85654 7.31192 0 -8.95122 7.36193 0 -9.04773 7.40717 0 -9.14588 7.44876 0 -9.24308 7.48624 0 -9.34095 7.52035 0 -9.43981 7.5517 0 -9.53734 7.58011 0 -9.63452 7.60595 0 -9.73053 7.62833 0 -9.82413 7.64594 0 -9.91649 7.65735 0 -10.0168 7.61519 0 -10.1053 7.55712 0 -10.1772 7.48152 0 -10.2524 7.32942 0 -10.3228 7.17217 0 -10.3839 7.01446 0 -10.4367 6.85457 0 -10.4843 6.69522 0 -10.4723 6.58222 0 -10.432 6.4782 0 -10.3829 6.37789 0 -10.3287 6.2789 0 -10.2732 6.18161 0 -10.216 6.08668 0 -10.1284 6.07865 0 -10.0385 6.07522 0 -9.91987 6.07388 0 -9.80323 6.07575 0 -9.68773 6.08157 0 -9.57035 6.0888 0 -9.45501 6.09892 0 -9.338 6.11304 0 -9.21619 6.13209 0 -9.09807 6.15398 0 -8.9815 6.17717 0 -8.89648 6.26373 0 -8.87935 6.36634 0 -8.8652 6.46417 0 -8.84704 6.58982 0 -8.82988 6.7186 0 -8.81628 6.846 0 -8.80479 6.97297 0 -8.37297 -1.65298 0 -8.28971 -1.58915 0 -8.22683 -1.51506 0 -8.18999 -1.41701 0 -8.19398 -1.3148 0 -8.19914 -1.20928 0 -8.202 -1.10291 0 -8.20522 -1.00292 0 -8.20846 -0.89783 0 -8.21199 -0.788369 0 -8.2157 -0.681225 0 -8.22127 -0.570721 0 -8.22559 -0.468855 0 -8.22858 -0.366063 0 -8.29732 -0.276658 0 -8.40111 -0.250193 0 -8.50765 -0.219239 0 -8.64354 -0.186562 0 -8.7706 -0.154535 0 -8.90163 -0.132921 0 -9.01126 -0.155272 0 -9.11895 -0.199768 0 -9.21024 -0.276571 0 -9.27953 -0.367323 0 -9.31592 -0.474869 0 -9.35241 -0.586702 0 -9.3874 -0.699265 0 -9.42083 -0.810918 0 -9.44705 -0.906245 0 -9.47186 -1.00252 0 -9.4217 -1.0909 0 -9.36946 -1.17682 0 -9.31084 -1.26051 0 -9.25116 -1.34317 0 -9.1884 -1.42501 0 -9.12343 -1.50542 0 -9.05646 -1.5825 0 -8.98671 -1.65789 0 -8.91339 -1.73241 0 -8.83787 -1.80707 0 -8.68766 -1.76454 0 -8.52973 -1.71117 0 -11.8103 -6.60187 0 -11.83 -6.48903 0 -11.852 -6.36433 0 -11.8755 -6.24074 0 -11.9913 -6.1325 0 -12.1229 -6.04525 0 -12.2476 -6.0715 0 -12.373 -6.09478 0 -12.499 -6.11539 0 -12.625 -6.13324 0 -12.7507 -6.14764 0 -12.877 -6.15567 0 -13.003 -6.15955 0 -13.1281 -6.16055 0 -13.2527 -6.15904 0 -13.377 -6.15462 0 -13.4805 -6.23221 0 -13.5318 -6.34763 0 -13.5996 -6.49682 0 -13.669 -6.64483 0 -13.6622 -6.74533 0 -13.6443 -6.84463 0 -13.6157 -6.94159 0 -13.5767 -7.03515 0 -13.5273 -7.12429 0 -13.4679 -7.20798 0 -13.4028 -7.28164 0 -13.33 -7.34854 0 -13.25 -7.40796 0 -13.1636 -7.45907 0 -13.0721 -7.50119 0 -12.9765 -7.53394 0 -12.8324 -7.56424 0 -12.685 -7.57333 0 -12.5375 -7.56105 0 -12.3932 -7.52743 0 -12.2552 -7.4728 0 -12.1263 -7.39839 0 -12.0092 -7.30631 0 -11.9063 -7.19806 0 -11.8205 -7.07597 0 -11.7535 -6.94236 0 -11.7712 -6.82814 0 -11.7907 -6.71478 0 -11.8539 -5.7449 0 -11.756 -5.80881 0 -11.646 -5.84904 0 -11.5297 -5.86254 0 -11.4291 -5.82953 0 -11.3299 -5.79364 0 -11.2307 -5.75469 0 -11.1322 -5.71276 0 -11.0346 -5.66713 0 -10.9412 -5.61478 0 -10.8501 -5.55992 0 -10.7611 -5.5031 0 -10.6738 -5.44419 0 -10.5886 -5.38138 0 -10.5562 -5.25295 0 -10.5901 -5.13439 0 -10.6214 -5.03006 0 -10.6531 -4.92583 0 -10.6857 -4.8216 0 -10.7197 -4.71798 0 -10.7542 -4.61451 0 -10.7887 -4.51167 0 -10.8403 -4.36234 0 -10.8924 -4.21395 0 -10.9452 -4.06643 0 -10.9995 -3.91949 0 -11.1382 -3.80745 0 -11.3186 -3.77983 0 -11.4733 -3.76041 0 -11.6278 -3.74679 0 -11.7849 -3.83637 0 -11.9026 -3.96856 0 -12.0225 -4.10032 0 -12.1445 -4.23026 0 -12.1427 -4.36074 0 -12.1368 -4.4918 0 -12.1279 -4.62267 0 -12.1159 -4.75315 0 -12.101 -4.88371 0 -12.0829 -5.01462 0 -12.062 -5.14523 0 -12.0383 -5.2762 0 -12.0125 -5.4086 0 -11.9922 -5.50795 0 -11.9701 -5.608 0 -11.7474 5.24368 0 -11.8692 5.29253 0 -12.0057 5.28371 0 -12.084 5.1931 0 -12.1601 5.1042 0 -12.2353 5.01508 0 -12.3106 4.92442 0 -12.3866 4.83467 0 -12.4626 4.74536 0 -12.5381 4.65579 0 -12.6122 4.56619 0 -12.6849 4.47703 0 -12.7595 4.38931 0 -12.8338 4.30229 0 -12.8546 4.17533 0 -12.8532 4.04712 0 -12.8287 3.92335 0 -12.7729 3.80126 0 -12.6913 3.6939 0 -12.5905 3.60441 0 -12.4359 3.60203 0 -12.2817 3.59733 0 -12.1291 3.58772 0 -11.9794 3.57689 0 -11.8271 3.5638 0 -11.6806 3.5501 0 -11.5637 3.53657 0 -11.441 3.52174 0 -11.2995 3.58379 0 -11.1593 3.67624 0 -11.1715 3.78111 0 -11.1865 3.88741 0 -11.2 3.99276 0 -11.2122 4.09769 0 -11.2225 4.20