<VTKFile type="PolyData" version="0.1" byte_order="LittleEndian">
    <PolyData>
        <Piece NumberOfPoints="2510" NumberOfPolys="58">
            <CellData>
                <DataArray type="Float64" Name="area" format="ascii">
2.96269 1.85116 1.99533 2.45858 2.77782 1.7922 3.18293 2.19875 1.95382 1.41693 1.59178 2.29398 2.96767 1.88194 2.12779 1.77233 1.4562 1.52316 1.2509 2.42574 2.28302 1.76553 1.56751 3.0306 3.24879 3.09332 2.75022 2.45839 1.56708 2.89202 2.62963 2.36839 2.5711 1.93561 1.44092 2.18561 2.50108 2.10691 2.5899 1.98942 1.50603 2.2189 1.80087 1.68304 2.16671 2.05779 1.40636 1.90158 1.75678 1.78161 1.87166 1.66992 1.41894 1.58919 1.46812 1.31204 1.38889 1.30994 
                </DataArray>
                <DataArray type="Float64" Name="c1" format="ascii">
0.0539958 0.0149424 0.0177039 0.0190176 0.0190158 0.0110262 0.0240003 0.0360619 0.011482 0.0222298 0.00921235 0.0143548 0.0121052 0.0239786 0.0346172 0.0237184 0.0122924 0.0280782 0.0166669 0.0255132 0.00948886 0.0122833 0.0160543 0.01911 0.0149587 0.0132485 0.03851 0.0397302 0.0132203 0.0163833 0.0174864 0.020747 0.0141553 0.0358677 0.0264772 0.0131587 0.0108886 0.028321 0.0294968 0.0131748 0.0388313 0.0411103 0.0289102 0.0396556 0.0109015 0.0101946 0.00976219 0.0328485 0.0184278 0.0123344 0.0204092 0.0141948 0.0378936 0.0133374 0.0266271 0.0127356 0.0153075 0.0208189 
                </DataArray>
                <DataArray type="Float64" Name="c2" format="ascii">
0.514222 0.694942 0.544046 0.649643 0.689257 0.947363 0.486848 0.443374 0.896365 0.523728 0.735453 0.811808 0.578641 0.627166 0.468008 0.487655 0.877649 0.532589 0.662419 0.558907 0.822554 0.720224 0.718729 0.663345 0.624287 0.896212 0.418177 0.480348 0.716637 0.518595 0.729408 0.601294 0.768162 0.5558 0.601461 0.606487 0.814214 0.505434 0.449253 0.918317 0.426203 0.457213 0.484955 0.505278 0.707532 0.658676 0.911089 0.583599 0.620638 0.868354 0.554209 0.73035 0.5346 0.787276 0.583061 0.774421 0.667447 0.561554 
                </DataArray>
                <DataArray type="Float64" Name="grad_c1" NumberOfComponents="2" format="ascii">
0.00242472 -0.000621061 0.00162486 0.00161453 0.00142216 0.00320381 0.00311014 -0.00283001 0.00340448 -0.00139556 -2.01349e-05 0.00101616 0.00128922 0.00436285 -0.00118325 -0.00322368 0.000474065 -0.000906237 0.000236777 -0.00400812 0.000370172 0.00108404 0.00159077 0.000288127 0.000705506 0.0018622 0.00618549 0.000867447 -0.000591055 0.00640609 6.17375e-05 -0.00407859 0.000252214 0.00109275 0.000404327 -0.00714078 0.00207222 -0.00245243 0.00408453 0.00497289 0.000432941 0.00106066 0.00100746 0.00143142 0.00220416 -0.00159053 0.00324902 0.0018197 0.00143314 0.00214383 0.000337284 0.000233241 0.0041753 -0.00591589 -0.00598285 -0.00836811 0.00161197 -0.00179029 0.00102614 0.00297362 0.00278946 0.000152309 0.00176511 -0.00382066 0.00136111 0.000866943 0.0103414 0.00725777 0.00692685 -0.00473002 0.000923011 0.00207874 0.000542128 0.00104183 0.00194663 0.00606983 0.000296956 -0.0046319 0.000298762 -0.000196387 0.00293011 -0.000827585 -0.00596975 0.00250697 -0.000640134 -0.00566698 0.00266177 0.0127998 0.000618925 0.00141011 0.000560478 0.00135379 0.000182723 0.00103628 0.0123422 -0.00248339 0.00252146 0.00255507 0.000594134 -0.00046045 0.00225846 0.0036454 0.00153609 -0.00180633 0.00245684 -0.0140627 0.0015704 -0.00102485 0.00425938 -0.00668723 0.00102536 0.00125017 0.00148119 -0.00236584 0.000561682 -0.00380463 
                </DataArray>
                <DataArray type="Float64" Name="grad_c2" NumberOfComponents="2" format="ascii">
-0.036197 0.00779787 -0.0630948 -0.00742829 -0.0313766 -0.0120724 -0.0451413 0.0241726 -0.0719156 0.00566811 -0.0876286 0.00133075 -0.0259115 -0.0087447 -0.0193231 0.00724643 -0.0809077 0.0106861 -0.0308914 0.0243691 -0.0597911 -0.0212926 -0.0658719 0.0133312 -0.0370468 -0.0207971 -0.0523227 0.000624406 -0.0232536 -0.00324349 -0.0221334 0.0198647 -0.109025 0.0123268 -0.0381516 0.020181 -0.0418806 0.0262103 -0.0427202 -0.00135436 -0.062182 -0.0116506 -0.0618929 -0.0167968 -0.061358 0.0163091 -0.0599418 -0.000773761 -0.0537747 -0.0138363 -0.106391 -0.0251084 -0.013727 0.00801713 -0.0256478 0.0102857 -0.0325247 0.0154332 -0.0292182 -0.0135655 -0.0700771 0.00676142 -0.0374357 0.0289971 -0.0722337 -0.0118692 -0.0437744 0.00244714 -0.0357754 0.0140428 -0.0440337 -0.0190324 -0.0711511 -0.018228 -0.02869 -0.00690275 -0.016257 0.0152024 -0.0888925 -0.00599827 -0.0156511 0.000823704 -0.0225474 0.00143084 -0.0242802 0.0160422 -0.0326286 0.000679418 -0.0631255 -0.0184004 -0.0471238 -0.0235445 -0.0711778 0.00036158 -0.0388038 0.00693773 -0.0562079 -0.00201183 -0.0908664 0.0308871 -0.0356659 -0.00728522 -0.0591371 0.0131493 -0.0405692 0.01554 -0.0568744 0.0247454 -0.0375981 0.0174102 -0.063791 -0.00566222 -0.038889 0.022617 -0.0390168 0.0274116 
                </DataArray>
                <DataArray type="Float64" Name="D1" format="ascii">
20.1884 47.8887 46.4257 29.5543 23.66 26.9155 31.6639 27.4076 30.8932 41.7876 28.6995 27.0936 25.8601 46.5973 31.4408 35.0437 37.913 16.8386 22.4411 28.3868 31.9534 36.3592 34.0147 20.1184 48.0826 38.3651 47.2917 29.8961 38.9749 43.0421 26.8686 32.3324 29.6121 52.4272 42.8323 25.5713 28.1693 45.098 44.1968 28.4491 30.3703 41.505 32.6894 22.6517 35.3618 31.9818 24.0428 32.7424 26.7175 29.508 44.3121 28.2242 27.8128 26.5813 30.8246 46.914 48.7844 41.4616 
                </DataArray>
                <DataArray type="Float64" Name="D2" format="ascii">
28.1376 29.476 55.2662 32.7903 26.1502 20.7843 31.7025 33.9204 29.999 25.2094 41.1061 34.7848 33.2469 38.6467 34.7848 56.3213 22.3241 25.0052 21.7317 17.7694 45.6173 35.0981 35.203 30.2212 14.9015 18.5881 34.7508 28.0313 24.2088 26.0686 28.7328 30.8758 30.5008 53.0714 18.1999 22.0737 37.4859 35.7535 23.7409 30.8278 21.4514 27.9131 23.3293 14.4624 29.8897 37.7594 29.304 28.5592 39.9196 26.3448 27.5206 49.805 30.1134 19.3908 37.1173 27.7042 52.5175 26.5361 
                </DataArray>
                <DataArray type="Float64" Name="k1" format="ascii">
0.910378 0.571072 1.14395 1.54432 0.926629 1.25016 0.575564 1.55852 0.945503 0.860941 0.791226 0.616893 1.05281 1.17647 0.817944 0.63907 0.482176 1.56031 0.91796 0.830993 0.79104 0.957837 0.807719 1.03161 1.08356 0.877557 1.01713 0.934678 0.868774 1.64607 0.737187 1.13232 0.856645 1.08628 0.597704 0.754089 0.758816 0.893221 0.690579 1.14494 1.4856 0.921894 1.55448 1.14625 1.25886 1.23837 0.981043 1.37766 1.11592 1.33894 0.934055 1.04397 0.879296 1.21283 1.39915 0.756872 0.755242 0.89103 
                </DataArray>
                <DataArray type="Float64" Name="k2" format="ascii">
0.1 0.1 0.1 0.1 0.1 0.1 0.1 0.1 0.1 0.1 0.1 0.1 0.1 0.1 0.1 0.1 0.1 0.1 0.1 0.1 0.1 0.1 0.1 0.1 0.1 0.1 0.1 0.1 0.1 0.1 0.1 0.1 0.1 0.1 0.1 0.1 0.1 0.1 0.1 0.1 0.1 0.1 0.1 0.1 0.1 0.1 0.1 0.1 0.1 0.1 0.1 0.1 0.1 0.1 0.1 0.1 0.1 0.1 
                </DataArray>
                <DataArray type="Float64" Name="k3" format="ascii">
1 1 1 1 1 1 1 1 1 1 1 1 1 1 1 1 1 1 1 1 1 1 1 1 1 1 1 1 1 1 1 1 1 1 1 1 1 1 1 1 1 1 1 1 1 1 1 1 1 1 1 1 1 1 1 1 1 1 
                </DataArray>
                <DataArray type="Int64" Name="cell_type" format="ascii">
0 1 1 1 1 1 1 1 1 1 2 1 1 1 1 1 1 1 1 1 2 1 1 1 1 1 1 1 1 1 1 1 1 1 1 1 1 1 1 1 1 1 1 1 1 1 2 1 1 1 1 1 1 1 1 1 1 1 
                </DataArray>
                <DataArray type="Float64" Name="perimeter" format="ascii">
6.41483 5.02553 5.20054 5.97475 6.19793 4.86727 6.64327 5.43827 5.04212 4.85196 4.58301 5.61221 6.2536 5.08011 5.35366 4.87561 4.44443 4.57096 4.07432 5.7497 5.5217 4.9379 4.66718 6.44727 6.65266 6.44858 6.00296 5.78106 4.5854 6.18966 6.02108 5.70998 5.91829 5.05702 4.45015 5.46523 5.88391 5.35659 5.88719 5.17185 4.52882 5.48882 4.94657 4.74678 5.43563 5.21346 4.31603 5.18008 4.88303 4.80756 5.19473 4.77827 4.40924 4.62624 4.45776 4.21852 4.30155 4.722 
                </DataArray>
                <DataArray type="Float64" Name="neighbors" format="ascii">
6 6 5 7 6 3 5 5 2 3 2 3 3 5 4 3 5 6 5 6 3 5 4 6 7 4 3 6 3 3 4 6 5 5 4 5 6 5 4 2 3 5 5 5 6 4 3 5 5 2 6 5 4 4 4 5 3 2 
                </DataArray>
            </CellData>
            <Points>
                <DataArray type="Float64" Name="Points" NumberOfComponents="3" format="ascii">
-7.5112 1.77857 0 -7.52317 1.67118 0 -7.53691 1.55369 0 -7.47412 1.40693 0 -7.35107 1.2979 0 -7.23298 1.18392 0 -7.11716 1.06495 0 -7.00543 0.942575 0 -6.85862 0.850958 0 -6.70093 0.783046 0 -6.5462 0.764351 0 -6.39217 0.736911 0 -6.23806 0.702949 0 -6.08463 0.663004 0 -5.93308 0.617659 0 -5.81389 0.663199 0 -5.70145 0.7282 0 -5.63692 0.777484 0 -5.57731 0.83169 0 -5.53913 0.999124 0 -5.49903 1.16743 0 -5.45802 1.33524 0 -5.41587 1.50314 0 -5.37279 1.67189 0 -5.46407 1.75163 0 -5.55425 1.83527 0 -5.64237 1.92008 0 -5.72711 2.0042 0 -5.80731 2.09003 0 -5.88894 2.17872 0 -5.99624 2.30279 0 -6.09807 2.42912 0 -6.23499 2.46998 0 -6.3842 2.45506 0 -6.5279 2.44688 0 -6.67872 2.44454 0 -6.82503 2.45075 0 -6.96655 2.46654 0 -7.10242 2.48535 0 -7.23196 2.41825 0 -7.30393 2.36062 0 -7.36906 2.29836 0 -7.43118 2.22934 0 -7.48494 2.14826 0 -7.48857 2.02064 0 -7.49823 1.89927 0 -9.73926 -2.69135 0 -9.68181 -2.61544 0 -9.62527 -2.53767 0 -9.60501 -2.43501 0 -9.60014 -2.32939 0 -9.64885 -2.23197 0 -9.69851 -2.13482 0 -9.74743 -2.03604 0 -9.7931 -1.93695 0 -9.8382 -1.83849 0 -9.88006 -1.73899 0 -9.92103 -1.64043 0 -9.96233 -1.54187 0 -10.034 -1.45857 0 -10.1182 -1.38876 0 -10.217 -1.36608 0 -10.3134 -1.34608 0 -10.4577 -1.32248 0 -10.6056 -1.37106 0 -10.6827 -1.4893 0 -10.7605 -1.61081 0 -10.8134 -1.69415 0 -10.864 -1.7801 0 -10.9164 -1.86795 0 -10.9705 -1.9561 0 -11.0245 -2.04727 0 -11.0798 -2.13867 0 -11.0726 -2.282 0 -11.0193 -2.39933 0 -10.9641 -2.52674 0 -10.9163 -2.64867 0 -10.8766 -2.7741 0 -10.8373 -2.89687 0 -10.7432 -2.9685 0 -10.6438 -3.02915 0 -10.5368 -3.04344 0 -10.4379 -3.05757 0 -10.3156 -3.07679 0 -10.1903 -3.09952 0 -10.0524 -3.07716 0 -9.97271 -2.98927 0 -9.89387 -2.89221 0 -9.81592 -2.79181 0 -6.52855 -2.65256 0 -6.63756 -2.62555 0 -6.74939 -2.61713 0 -6.83886 -2.65945 0 -6.92858 -2.70399 0 -7.01679 -2.74851 0 -7.10596 -2.79393 0 -7.19499 -2.83954 0 -7.28372 -2.88578 0 -7.37327 -2.93374 0 -7.46198 -2.98223 0 -7.54977 -3.03049 0 -7.63711 -3.0786 0 -7.72564 -3.12796 0 -7.79787 -3.23425 0 -7.84761 -3.35255 0 -7.86019 -3.49755 0 -7.87527 -3.68143 0 -7.83307 -3.77222 0 -7.7809 -3.85727 0 -7.63839 -3.98258 0 -7.49415 -4.10726 0 -7.34971 -4.23244 0 -7.17012 -4.27805 0 -6.9843 -4.28167 0 -6.80151 -4.24278 0 -6.67814 -4.11272 0 -6.56223 -3.97999 0 -6.45169 -3.84513 0 -6.34415 -3.70714 0 -6.24133 -3.56416 0 -6.14493 -3.41599 0 -6.12355 -3.32268 0 -6.11597 -3.22776 0 -6.19712 -3.09392 0 -6.25678 -3.00004 0 -6.32189 -2.9103 0 -6.38885 -2.82279 0 -6.45768 -2.73683 0 -9.47166 3.35967 0 -9.37571 3.2979 0 -9.2343 3.33568 0 -9.12248 3.44505 0 -9.00791 3.5369 0 -8.88032 3.61409 0 -8.74374 3.69552 0 -8.61435 3.76193 0 -8.48173 3.82054 0 -8.4211 3.89535 0 -8.36164 3.96597 0 -8.28419 4.09814 0 -8.20185 4.23875 0 -8.11253 4.38921 0 -8.02605 4.53121 0 -8.03693 4.69335 0 -8.09823 4.83885 0 -8.17193 4.97687 0 -8.2694 5.0077 0 -8.35567 5.02759 0 -8.45191 5.02783 0 -8.54238 5.02928 0 -8.63374 5.03577 0 -8.71971 5.04931 0 -8.80371 5.0663 0 -8.88989 5.08507 0 -8.98654 5.11026 0 -9.08211 5.1514 0 -9.18213 5.19668 0 -9.27155 5.22308 0 -9.38508 5.14378 0 -9.48464 5.0676 0 -9.59286 4.98624 0 -9.70377 4.89723 0 -9.80769 4.8053 0 -9.91304 4.70936 0 -9.97017 4.58514 0 -9.92466 4.45549 0 -9.89741 4.36599 0 -9.87373 4.27192 0 -9.85233 4.17349 0 -9.83121 4.08036 0 -9.8112 3.99094 0 -9.79099 3.89891 0 -9.77296 3.80753 0 -9.75653 3.71712 0 -9.74315 3.61984 0 -9.72441 3.52212 0 -9.63384 3.46369 0 -9.55063 3.41026 0 -11.2563 2.56331 0 -11.2603 2.43207 0 -11.2496 2.30179 0 -11.2193 2.1772 0 -11.1046 2.14279 0 -10.9915 2.10358 0 -10.8779 2.06234 0 -10.764 2.01991 0 -10.6505 1.97628 0 -10.5375 1.92962 0 -10.4243 1.87871 0 -10.3099 1.82403 0 -10.1961 1.76802 0 -10.0819 1.71286 0 -9.9363 1.72863 0 -9.79428 1.75852 0 -9.66238 1.83305 0 -9.56381 1.8874 0 -9.4695 1.94366 0 -9.39445 2.03649 0 -9.32636 2.13537 0 -9.26432 2.23568 0 -9.21904 2.33978 0 -9.17605 2.44526 0 -9.13393 2.54903 0 -9.19856 2.69991 0 -9.2456 2.8496 0 -9.2787 2.9956 0 -9.30512 3.14602 0 -9.37619 3.28419 0 -9.47589 3.35054 0 -9.60362 3.43244 0 -9.72514 3.51049 0 -9.811 3.48015 0 -9.89766 3.45091 0 -9.98494 3.42398 0 -10.0806 3.39749 0 -10.1763 3.37574 0 -10.2661 3.35784 0 -10.3477 3.34335 0 -10.4361 3.33296 0 -10.5263 3.32469 0 -10.6201 3.31849 0 -10.7148 3.31462 0 -10.8062 3.31127 0 -10.9053 3.2514 0 -10.988 3.18148 0 -11.0691 3.08911 0 -11.1362 2.98722 0 -11.1944 2.87769 0 -11.2318 2.7604 0 -11.2471 2.66378 0 -13.9879 -4.06729 0 -13.9064 -4.14478 0 -13.816 -4.20722 0 -13.718 -4.26012 0 -13.6143 -4.30035 0 -13.5252 -4.26555 0 -13.4395 -4.23375 0 -13.3543 -4.20292 0 -13.2657 -4.17018 0 -13.1722 -4.13428 0 -13.0802 -4.10063 0 -12.9884 -4.07092 0 -12.9009 -4.04528 0 -12.8295 -3.95509 0 -12.7981 -3.83334 0 -12.7654 -3.71866 0 -12.7356 -3.59604 0 -12.6941 -3.44247 0 -12.7282 -3.26373 0 -12.8538 -3.15729 0 -12.982 -3.03839 0 -13.0864 -2.93263 0 -13.1867 -2.83332 0 -13.2885 -2.73742 0 -13.3861 -2.64457 0 -13.5199 -2.65283 0 -13.6453 -2.68265 0 -13.7619 -2.73008 0 -13.866 -2.79294 0 -13.9548 -2.87291 0 -14.0295 -2.96969 0 -14.0908 -3.0778 0 -14.1396 -3.1924 0 -14.1744 -3.31174 0 -14.1935 -3.43607 0 -14.1956 -3.56479 0 -14.178 -3.69474 0 -14.1394 -3.82191 0 -14.0795 -3.94313 0 -5.21317 -1.34464 0 -5.33686 -1.32984 0 -5.44942 -1.39678 0 -5.55172 -1.47625 0 -5.63241 -1.58343 0 -5.7203 -1.68613 0 -5.81431 -1.78352 0 -5.91384 -1.87503 0 -6.019 -1.96173 0 -6.12773 -2.04202 0 -6.2403 -2.11671 0 -6.35674 -2.18523 0 -6.47772 -2.24636 0 -6.60082 -2.30271 0 -6.57047 -2.47752 0 -6.51833 -2.64708 0 -6.40868 -2.78109 0 -6.32732 -2.88602 0 -6.24938 -2.99316 0 -6.17797 -3.10564 0 -6.10783 -3.21944 0 -5.99348 -3.30135 0 -5.90031 -3.31576 0 -5.80464 -3.33059 0 -5.7091 -3.34592 0 -5.61327 -3.36146 0 -5.51706 -3.37731 0 -5.42177 -3.39512 0 -5.32621 -3.41347 0 -5.23085 -3.43087 0 -5.1284 -3.3972 0 -5.02978 -3.35495 0 -4.93556 -3.30416 0 -4.84606 -3.24448 0 -4.76277 -3.17684 0 -4.68666 -3.10226 0 -4.61848 -3.02106 0 -4.55855 -2.93391 0 -4.50688 -2.8418 0 -4.46425 -2.74558 0 -4.43101 -2.64593 0 -4.40709 -2.5434 0 -4.39287 -2.43897 0 -4.38827 -2.33367 0 -4.39318 -2.22798 0 -4.40756 -2.12266 0 -4.43112 -2.01877 0 -4.46418 -1.9176 0 -4.50687 -1.82044 0 -4.55846 -1.72837 0 -4.65718 -1.59414 0 -4.77421 -1.47571 0 -4.90763 -1.37532 0 -5.06106 -1.36099 0 -4.03765 1.34172 0 -3.96031 1.28382 0 -3.88113 1.22768 0 -3.79576 1.27145 0 -3.71095 1.31599 0 -3.62718 1.36068 0 -3.54408 1.40644 0 -3.46202 1.45344 0 -3.38056 1.50154 0 -3.29951 1.55112 0 -3.21864 1.60209 0 -3.13808 1.65415 0 -3.05795 1.70761 0 -2.97878 1.76263 0 -2.91939 1.87635 0 -2.88145 1.99894 0 -2.88865 2.12175 0 -2.89814 2.27805 0 -2.91149 2.43485 0 -2.93238 2.59241 0 -3.03667 2.74628 0 -3.16949 2.81926 0 -3.34009 2.90663 0 -3.51237 2.98496 0 -3.59999 3.01853 0 -3.68713 3.05138 0 -3.77523 3.07969 0 -3.86435 3.1057 0 -3.97798 3.05546 0 -4.08265 2.98879 0 -4.17646 2.90688 0 -4.25738 2.81212 0 -4.29618 2.70568 0 -4.33449 2.59852 0 -4.38152 2.46503 0 -4.42782 2.33188 0 -4.47359 2.19898 0 -4.51851 2.06678 0 -4.56191 1.93444 0 -4.54779 1.79036 0 -4.47867 1.72071 0 -4.40663 1.65108 0 -4.33431 1.5824 0 -4.25861 1.51905 0 -4.14932 1.42954 0 -13.5032 5.0601 0 -13.4642 4.93963 0 -13.4066 4.82743 0 -13.3315 4.72073 0 -13.2418 4.62849 0 -13.1503 4.62521 0 -13.0603 4.62416 0 -12.9653 4.62139 0 -12.8667 4.61697 0 -12.769 4.61242 0 -12.6734 4.60796 0 -12.5786 4.60391 0 -12.4857 4.60052 0 -12.3913 4.59858 0 -12.2894 4.6346 0 -12.1922 4.68553 0 -12.1341 4.77042 0 -12.0534 4.89157 0 -11.9761 5.00723 0 -11.8975 5.12388 0 -11.8181 5.23843 0 -11.8317 5.32303 0 -11.8538 5.40873 0 -11.8837 5.49466 0 -11.9223 5.57852 0 -11.9696 5.65589 0 -12.0232 5.72729 0 -12.0966 5.80895 0 -12.1796 5.88155 0 -12.2725 5.94357 0 -12.3729 5.99149 0 -12.5244 6.03704 0 -12.6784 6.05922 0 -12.8391 6.04989 0 -13.0037 6.00868 0 -13.158 5.93194 0 -13.2938 5.82297 0 -13.4 5.68978 0 -13.4704 5.53797 0 -13.5106 5.37847 0 -13.5235 5.2171 0 -5.1153 6.32387 0 -5.15722 6.22002 0 -5.19906 6.11603 0 -5.2409 6.01204 0 -5.28275 5.90805 0 -5.32459 5.80406 0 -5.36643 5.70006 0 -5.40827 5.59607 0 -5.45011 5.49208 0 -5.49195 5.38809 0 -5.53379 5.28409 0 -5.57563 5.1801 0 -5.61747 5.07611 0 -5.65931 4.97212 0 -5.70115 4.86812 0 -5.74299 4.76413 0 -5.78469 4.66017 0 -5.68962 4.60688 0 -5.59613 4.55229 0 -5.50122 4.49871 0 -5.37319 4.50239 0 -5.27199 4.54761 0 -5.17212 4.59278 0 -5.07224 4.63734 0 -4.96868 4.67722 0 -4.86305 4.71424 0 -4.75653 4.74867 0 -4.67269 4.8254 0 -4.62948 5.00047 0 -4.60272 5.10532 0 -4.57458 5.20944 0 -4.54476 5.3127 0 -4.5132 5.41446 0 -4.4796 5.51397 0 -4.44627 5.61335 0 -4.5006 5.74248 0 -4.56856 5.86592 0 -4.62822 5.95152 0 -4.69473 6.0322 0 -4.76826 6.10493 0 -4.84719 6.17121 0 -4.93191 6.2301 0 -5.02141 6.28095 0 -9.40185 -7.13047 0 -9.30784 -7.06214 0 -9.2254 -6.9809 0 -9.15661 -6.88849 0 -9.17141 -6.80031 0 -9.18804 -6.71245 0 -9.20505 -6.62481 0 -9.2228 -6.53735 0 -9.24142 -6.45002 0 -9.26083 -6.36301 0 -9.28094 -6.27636 0 -9.30169 -6.18985 0 -9.32287 -6.10361 0 -9.34427 -6.01816 0 -9.36564 -5.93396 0 -9.42913 -5.87568 0 -9.50009 -5.82825 0 -9.61973 -5.83209 0 -9.73828 -5.84049 0 -9.85643 -5.85192 0 -9.97431 -5.86602 0 -10.0927 -5.88268 0 -10.2111 -5.90189 0 -10.3293 -5.92529 0 -10.4319 -6.03878 0 -10.5091 -6.17136 0 -10.5572 -6.31766 0 -10.573 -6.43247 0 -10.5708 -6.54873 0 -10.5507 -6.66362 0 -10.5135 -6.77485 0 -10.4599 -6.87969 0 -10.3911 -6.97499 0 -10.3379 -7.03162 0 -10.2796 -7.08267 0 -10.1491 -7.16556 0 -10.004 -7.22 0 -9.84985 -7.24382 0 -9.69379 -7.23627 0 -9.54248 -7.19809 0 -12.1162 1.76786 0 -12.2251 1.7694 0 -12.4075 1.74799 0 -12.5839 1.69456 0 -12.7486 1.60933 0 -12.7849 1.5091 0 -12.8171 1.40721 0 -12.8477 1.30449 0 -12.877 1.20118 0 -12.9048 1.09792 0 -12.9312 0.995029 0 -12.9563 0.89204 0 -12.9801 0.788439 0 -13.0024 0.68372 0 -13.0229 0.577502 0 -13.0405 0.469844 0 -12.9869 0.352573 0 -12.9023 0.294113 0 -12.7808 0.213884 0 -12.6572 0.13724 0 -12.5305 0.0648765 0 -12.4006 -0.00208442 0 -12.267 -0.0636255 0 -12.1296 -0.119508 0 -12.0185 -0.111401 0 -11.9099 -0.0892596 0 -11.8055 -0.0530553 0 -11.7076 -0.00328876 0 -11.6176 0.058948 0 -11.5369 0.132445 0 -11.4489 0.240139 0 -11.3808 0.360115 0 -11.409 0.473808 0 -11.44 0.587443 0 -11.4722 0.701021 0 -11.5053 0.81388 0 -11.5453 0.941235 0 -11.586 1.06773 0 -11.6276 1.19369 0 -11.6694 1.3185 0 -11.7116 1.44308 0 -11.7548 1.56881 0 -11.8013 1.69334 0 -11.903 1.73005 0 -12.0083 1.75507 0 -5.89898 -5.8209 0 -5.87651 -5.66947 0 -5.87676 -5.51678 0 -5.89951 -5.36649 0 -5.98997 -5.29372 0 -6.08161 -5.22197 0 -6.17374 -5.14981 0 -6.26567 -5.07783 0 -6.35754 -5.00574 0 -6.44919 -4.93408 0 -6.54092 -4.86254 0 -6.63318 -4.79095 0 -6.72643 -4.72117 0 -6.86662 -4.70434 0 -7.00699 -4.70841 0 -7.14586 -4.73375 0 -7.27913 -4.77819 0 -7.34602 -4.85785 0 -7.41315 -4.93639 0 -7.48138 -5.01418 0 -7.55069 -5.09054 0 -7.62116 -5.16592 0 -7.69244 -5.24048 0 -7.76549 -5.31433 0 -7.83941 -5.38706 0 -7.91457 -5.45892 0 -7.99067 -5.52956 0 -8.01027 -5.6379 0 -7.9625 -5.74637 0 -7.91602 -5.85478 0 -7.87158 -5.96405 0 -7.82811 -6.07339 0 -7.78658 -6.18341 0 -7.75276 -6.27704 0 -7.68004 -6.35217 0 -7.60016 -6.41965 0 -7.51374 -6.47856 0 -7.42217 -6.52856 0 -7.32623 -6.57002 0 -7.22677 -6.60222 0 -7.12487 -6.62512 0 -7.02127 -6.63845 0 -6.91708 -6.64143 0 -6.81328 -6.63504 0 -6.71044 -6.61843 0 -6.54586 -6.56959 0 -6.39106 -6.49415 0 -6.25134 -6.39481 0 -6.12902 -6.27497 0 -6.02789 -6.13698 0 -5.9503 -5.98427 0 -8.52992 0.884473 0 -8.49853 0.990966 0 -8.52665 1.09035 0 -8.56783 1.18509 0 -8.64386 1.25306 0 -8.71909 1.32097 0 -8.79378 1.3895 0 -8.86726 1.46124 0 -8.93951 1.53507 0 -9.00978 1.61069 0 -9.07796 1.6884 0 -9.14406 1.76842 0 -9.20978 1.8502 0 -9.27332 1.93022 0 -9.37183 1.9388 0 -9.46884 1.93211 0 -9.55592 1.88043 0 -9.67584 1.81406 0 -9.7955 1.74641 0 -9.89189 1.62149 0 -9.96132 1.47083 0 -9.96892 1.30162 0 -9.97677 1.13447 0 -9.98429 0.966069 0 -9.99231 0.794815 0 -10.0006 0.621722 0 -9.90104 0.487856 0 -9.77193 0.428295 0 -9.64241 0.373838 0 -9.49386 0.315371 0 -9.34649 0.264044 0 -9.22833 0.224646 0 -9.10995 0.187228 0 -8.97609 0.231446 0 -8.85168 0.298435 0 -8.7408 0.386398 0 -8.64686 0.491451 0 -8.60748 0.623676 0 -8.56912 0.754673 0 -4.28207 -0.312001 0 -4.30649 -0.183231 0 -4.34774 -0.0589051 0 -4.40504 0.0590759 0 -4.5049 0.0942599 0 -4.60447 0.129491 0 -4.70466 0.165157 0 -4.80461 0.201203 0 -4.90342 0.237772 0 -5.00191 0.27487 0 -5.09978 0.312633 0 -5.19708 0.350679 0 -5.29454 0.388603 0 -5.39235 0.427091 0 -5.50079 0.386334 0 -5.6024 0.331609 0 -5.69595 0.264195 0 -5.71392 0.177346 0 -5.75077 0.00641968 0 -5.79552 -0.161583 0 -5.84931 -0.32496 0 -5.91116 -0.484567 0 -5.8919 -0.580269 0 -5.83535 -0.655777 0 -5.77813 -0.730377 0 -5.72543 -0.80962 0 -5.66789 -0.89611 0 -5.61467 -0.987033 0 -5.56159 -1.07784 0 -5.50951 -1.16904 0 -5.42868 -1.24747 0 -5.34101 -1.31774 0 -5.25381 -1.32976 0 -5.16643 -1.33966 0 -5.07873 -1.34909 0 -4.99124 -1.35751 0 -4.904 -1.36419 0 -4.81214 -1.322 0 -4.7252 -1.27107 0 -4.64418 -1.21215 0 -4.56972 -1.14539 0 -4.50253 -1.0716 0 -4.44315 -0.991521 0 -4.39206 -0.906054 0 -4.3401 -0.79198 0 -4.30282 -0.671887 0 -4.2816 -0.553631 0 -4.27452 -0.43323 0 -4.08927 4.28385 0 -3.99949 4.19654 0 -3.89227 4.16798 0 -3.81459 4.21129 0 -3.73751 4.2565 0 -3.66086 4.30194 0 -3.5843 4.34792 0 -3.50792 4.39474 0 -3.4322 4.44324 0 -3.35825 4.49328 0 -3.28527 4.54356 0 -3.21276 4.5942 0 -3.14 4.64561 0 -3.06869 4.69961 0 -3.05895 4.83338 0 -3.06927 4.96672 0 -3.09918 5.09686 0 -3.17037 5.26489 0 -3.27472 5.41601 0 -3.407 5.54369 0 -3.56142 5.64277 0 -3.73235 5.70917 0 -3.91261 5.73932 0 -4.09504 5.73195 0 -4.27166 5.68693 0 -4.43564 5.60694 0 -4.46965 5.51229 0 -4.502 5.41658 0 -4.53227 5.31946 0 -4.56073 5.22164 0 -4.5876 5.12325 0 -4.61322 5.02403 0 -4.63782 4.92522 0 -4.66043 4.82672 0 -4.61226 4.72406 0 -4.52089 4.6546 0 -4.43096 4.58325 0 -4.34287 4.51144 0 -4.25656 4.4381 0 -4.172 4.36214 0 -12.5619 -3.26568 0 -12.4638 -3.21712 0 -12.3623 -3.18116 0 -12.3008 -3.09965 0 -12.2431 -3.02632 0 -12.2425 -2.95329 0 -12.2365 -2.87045 0 -12.2199 -2.79517 0 -12.2083 -2.70262 0 -12.1978 -2.61497 0 -12.179 -2.54394 0 -12.1626 -2.46941 0 -12.1444 -2.37059 0 -12.1323 -2.27945 0 -12.1571 -2.18269 0 -12.2105 -2.08478 0 -12.2662 -2.02689 0 -12.3535 -1.94344 0 -12.4347 -1.8696 0 -12.522 -1.79129 0 -12.6079 -1.71517 0 -12.7701 -1.69128 0 -12.9223 -1.73281 0 -13.0746 -1.77571 0 -13.167 -1.84677 0 -13.2467 -1.93361 0 -13.3122 -2.03721 0 -13.3626 -2.15332 0 -13.3977 -2.27561 0 -13.4153 -2.3989 0 -13.4094 -2.51728 0 -13.3828 -2.63184 0 -13.2635 -2.74726 0 -13.1749 -2.83082 0 -13.0867 -2.9182 0 -12.9986 -3.00747 0 -12.9064 -3.09514 0 -12.8138 -3.17817 0 -12.7185 -3.25657 0 -6.94766 4.26076 0 -6.93195 4.12137 0 -6.88353 3.99424 0 -6.81668 3.8731 0 -6.73587 3.82098 0 -6.64808 3.76553 0 -6.56302 3.71266 0 -6.48102 3.66216 0 -6.39426 3.61125 0 -6.30734 3.5558 0 -6.2238 3.49629 0 -6.14613 3.4399 0 -6.07285 3.39 0 -5.99498 3.33624 0 -5.88412 3.32905 0 -5.79596 3.38893 0 -5.71181 3.44855 0 -5.61148 3.51941 0 -5.53002 3.64569 0 -5.5148 3.78238 0 -5.50033 3.92232 0 -5.48553 4.06406 0 -5.47209 4.20871 0 -5.46032 4.35334 0 -5.51 4.49026 0 -5.62016 4.55481 0 -5.70558 4.60445 0 -5.79183 4.65254 0 -5.88171 4.69631 0 -5.97308 4.73533 0 -6.06597 4.7728 0 -6.16174 4.80826 0 -6.36012 4.79652 0 -6.48448 4.70225 0 -6.60936 4.60154 0 -6.73234 4.49818 0 -6.84434 4.38709 0 -7.94021 5.77164 0 -7.99085 5.83032 0 -8.04513 5.89897 0 -8.09143 5.9289 0 -8.14782 5.96557 0 -8.21221 6.00644 0 -8.28659 6.04703 0 -8.35396 6.08175 0 -8.42054 6.11354 0 -8.48476 6.14335 0 -8.55398 6.16771 0 -8.62042 6.18669 0 -8.68189 6.20909 0 -8.74227 6.22902 0 -8.81201 6.20951 0 -8.87906 6.18862 0 -8.95393 6.15053 0 -9.03872 6.06279 0 -9.12343 5.96497 0 -9.20788 5.87701 0 -9.28364 5.79016 0 -9.34265 5.7019 0 -9.35721 5.54389 0 -9.29171 5.37437 0 -9.25875 5.29655 0 -9.20865 5.21897 0 -9.08929 5.16563 0 -9.00742 5.12968 0 -8.92822 5.1052 0 -8.75807 5.06714 0 -8.66084 5.04986 0 -8.55467 5.04004 0 -8.45252 5.03777 0 -8.35777 5.0382 0 -8.25623 5.06406 0 -8.16792 5.10365 0 -8.07817 5.25594 0 -8.03451 5.35697 0 -7.9998 5.45353 0 -7.96933 5.56808 0 -7.94704 5.67485 0 -7.28909 -1.67689 0 -7.19833 -1.51623 0 -7.16274 -1.34331 0 -7.126 -1.16944 0 -7.08373 -0.99584 0 -7.03923 -0.822969 0 -6.99336 -0.649714 0 -7.04448 -0.524381 0 -7.14808 -0.409852 0 -7.25142 -0.295213 0 -7.37963 -0.212994 0 -7.52632 -0.153635 0 -7.67996 -0.138906 0 -7.83383 -0.122738 0 -7.98777 -0.105781 0 -8.14181 -0.0881109 0 -8.29583 -0.0689248 0 -8.41148 -0.104723 0 -8.52133 -0.156907 0 -8.62281 -0.224036 0 -8.71358 -0.304982 0 -8.79188 -0.397735 0 -8.8171 -0.504196 0 -8.83998 -0.610959 0 -8.86125 -0.717356 0 -8.891 -0.895432 0 -8.83066 -0.972663 0 -8.76991 -1.04904 0 -8.71051 -1.12779 0 -8.65074 -1.20696 0 -8.59246 -1.28774 0 -8.53569 -1.36988 0 -8.48027 -1.45319 0 -8.42612 -1.53793 0 -8.3731 -1.62463 0 -8.32175 -1.71291 0 -8.19382 -1.71213 0 -8.06421 -1.70842 0 -7.93465 -1.70409 0 -7.80617 -1.69946 0 -7.67742 -1.69456 0 -7.54775 -1.68925 0 -7.41744 -1.68352 0 -10.7711 -5.33055 0 -10.7946 -5.22316 0 -10.8209 -5.10447 0 -10.8495 -4.98796 0 -10.977 -4.87223 0 -11.1209 -4.77872 0 -11.2404 -4.79305 0 -11.3597 -4.80771 0 -11.4797 -4.82225 0 -11.6016 -4.83498 0 -11.7264 -4.84639 0 -11.8536 -4.85653 0 -11.9831 -4.86045 0 -12.1137 -4.85913 0 -12.2433 -4.85457 0 -12.3469 -4.89774 0 -12.4403 -4.95398 0 -12.4867 -5.07911 0 -12.5463 -5.23559 0 -12.6061 -5.38637 0 -12.59 -5.492 0 -12.5641 -5.59468 0 -12.5289 -5.69378 0 -12.4846 -5.78871 0 -12.4311 -5.87918 0 -12.3684 -5.96422 0 -12.3004 -6.03872 0 -12.2249 -6.10537 0 -12.1425 -6.16308 0 -12.0543 -6.2113 0 -11.9615 -6.24982 0 -11.8653 -6.27872 0 -11.7217 -6.30375 0 -11.5763 -6.30872 0 -11.4322 -6.29257 0 -11.2929 -6.25504 0 -11.161 -6.19689 0 -11.0397 -6.11931 0 -10.9319 -6.02427 0 -10.8397 -5.91436 0 -10.7649 -5.79222 0 -10.7086 -5.66183 0 -10.7271 -5.54981 0 -10.7485 -5.43953 0 -10.8651 -4.57722 0 -10.7719 -4.62404 0 -10.6711 -4.65657 0 -10.565 -4.67194 0 -10.4778 -4.64675 0 -10.3907 -4.61959 0 -10.3036 -4.59064 0 -10.2169 -4.55985 0 -10.1312 -4.52674 0 -10.0475 -4.48821 0 -9.96441 -4.44771 0 -9.88215 -4.40585 0 -9.80119 -4.3632 0 -9.72239 -4.31833 0 -9.68531 -4.21812 0 -9.71252 -4.12356 0 -9.76347 -3.9587 0 -9.81825 -3.79699 0 -9.87354 -3.63744 0 -9.91829 -3.52659 0 -9.96615 -3.41903 0 -10.0161 -3.31074 0 -10.0685 -3.19933 0 -10.1973 -3.10829 0 -10.3551 -3.08051 0 -10.4989 -3.05877 0 -10.6481 -3.03956 0 -10.8018 -3.08218 0 -10.9368 -3.15084 0 -11.0328 -3.2421 0 -11.1341 -3.33293 0 -11.1196 -3.43563 0 -11.1089 -3.54501 0 -11.1044 -3.65449 0 -11.0919 -3.76302 0 -11.0706 -3.87576 0 -11.0532 -3.9893 0 -11.0423 -4.10151 0 -11.0311 -4.21693 0 -11.0151 -4.32876 0 -10.9877 -4.47884 0 -10.4423 4.74344 0 -10.5564 4.76856 0 -10.6785 4.75 0 -10.7297 4.68391 0 -10.7819 4.6079 0 -10.8312 4.5339 0 -10.8807 4.45825 0 -10.9323 4.37928 0 -10.9751 4.30397 0 -11.0174 4.22117 0 -11.0624 4.13652 0 -11.104 4.06125 0 -11.1482 3.98109 0 -11.1965 3.89103 0 -11.1903 3.77555 0 -11.1532 3.66569 0 -11.098 3.55678 0 -11.0183 3.4571 0 -10.9208 3.37496 0 -10.805 3.32235 0 -10.6876 3.32553 0 -10.571 3.3316 0 -10.4524 3.34133 0 -10.3293 3.35659 0 -10.2093 3.37921 0 -10.0941 3.40456 0 -10.0035 3.42912 0 -9.91101 3.45717 0 -9.82353 3.48637 0 -9.73601 3.51937 0 -9.7521 3.61223 0 -9.76407 3.69934 0 -9.77903 3.78546 0 -9.79633 3.87483 0 -9.81609 3.96697 0 -9.83596 4.05621 0 -9.85591 4.14323 0 -9.87572 4.23445 0 -9.89777 4.32707 0 -9.92307 4.41643 0 -9.95215 4.50399 0 -9.98305 4.58811 0 -10.0701 4.65848 0 -10.1663 4.67861 0 -10.2564 4.69911 0 -10.3501 4.72159 0 -10.8162 -0.903852 0 -10.7633 -0.987022 0 -10.6866 -1.10844 0 -10.6089 -1.23227 0 -10.536 -1.27439 0 -10.4581 -1.31143 0 -10.2891 -1.34018 0 -10.1167 -1.37792 0 -9.93514 -1.35391 0 -9.80538 -1.26403 0 -9.66818 -1.18027 0 -9.52579 -1.10193 0 -9.37969 -1.03283 0 -9.22422 -0.98009 0 -9.06464 -0.933376 0 -8.90261 -0.893281 0 -8.8732 -0.726956 0 -8.85707 -0.644465 0 -8.83993 -0.562091 0 -8.82187 -0.47975 0 -8.80335 -0.397177 0 -8.82949 -0.290962 0 -8.86681 -0.187414 0 -8.91412 -0.0878067 0 -8.97108 0.00662674 0 -9.03692 0.0946495 0 -9.1119 0.175799 0 -9.20451 0.206424 0 -9.29752 0.236908 0 -9.39045 0.268595 0 -9.48297 0.30051 0 -9.57366 0.336036 0 -9.66431 0.371866 0 -9.78263 0.422078 0 -9.89996 0.476128 0 -10.0299 0.470046 0 -10.1589 0.447177 0 -10.2741 0.392644 0 -10.3919 0.340562 0 -10.5106 0.290342 0 -10.63 0.241855 0 -10.7333 0.201268 0 -10.8374 0.162207 0 -10.9085 0.0709906 0 -10.9683 -0.0279583 0 -11.0171 -0.133111 0 -11.055 -0.243571 0 -11.0801 -0.358334 0 -11.0932 -0.476077 0 -11.0376 -0.562152 0 -10.981 -0.647284 0 -10.9253 -0.733651 0 -10.87 -0.819382 0 -9.5733 -4.32781 0 -9.49605 -4.36646 0 -9.41862 -4.40427 0 -9.26305 -4.48011 0 -9.11698 -4.4775 0 -9.01677 -4.41483 0 -8.9167 -4.35147 0 -8.81457 -4.28851 0 -8.71248 -4.22611 0 -8.60877 -4.16509 0 -8.50563 -4.10514 0 -8.40306 -4.04575 0 -8.29895 -3.98769 0 -8.19462 -3.92983 0 -8.08948 -3.87282 0 -7.98334 -3.81547 0 -7.88696 -3.68405 0 -7.87415 -3.54562 0 -7.86551 -3.44287 0 -7.85632 -3.33987 0 -7.87883 -3.21886 0 -7.91756 -3.10141 0 -7.97554 -3.03548 0 -8.03408 -2.96822 0 -8.14804 -2.83618 0 -8.26094 -2.70362 0 -8.37361 -2.56999 0 -8.48462 -2.4372 0 -8.64864 -2.36311 0 -8.77304 -2.38586 0 -8.89803 -2.40568 0 -9.02209 -2.42207 0 -9.14696 -2.43169 0 -9.27158 -2.43777 0 -9.39564 -2.44085 0 -9.51059 -2.48481 0 -9.6172 -2.5452 0 -9.68644 -2.6383 0 -9.75673 -2.73071 0 -9.82696 -2.82255 0 -9.89752 -2.91294 0 -9.96956 -3.00104 0 -10.042 -3.08274 0 -10.0558 -3.20113 0 -10.0061 -3.30856 0 -9.95693 -3.41526 0 -9.90954 -3.52172 0 -9.8653 -3.63101 0 -9.82587 -3.7443 0 -9.78636 -3.85972 0 -9.74701 -3.97681 0 -9.71007 -4.09753 0 -9.67319 -4.21926 0 -12.0351 -0.348377 0 -12.0782 -0.231636 0 -12.1409 -0.125703 0 -12.2874 -0.0658838 0 -12.4317 0.00159208 0 -12.5738 0.07672 0 -12.714 0.1