<VTKFile type="PolyData" version="0.1" byte_order="LittleEndian">
    <PolyData>
        <Piece NumberOfPoints="40" NumberOfPolys="1">
            <CellData>
                <DataArray type="Float64" Name="area" format="ascii">
3.16211 
                </DataArray>
                <DataArray type="Float64" Name="c1" format="ascii">
0.0265407 
                </DataArray>
                <DataArray type="Float64" Name="c2" format="ascii">
9.41752e-09 
                </DataArray>
                <DataArray type="Float64" Name="grad_c1" NumberOfComponents="2" format="ascii">
-1.87057e-05 -1.87057e-05 
                </DataArray>
                <DataArray type="Float64" Name="grad_c2" NumberOfComponents="2" format="ascii">
-2.32305e-08 -1.73721e-11 
                </DataArray>
                <DataArray type="Float64" Name="D1" format="ascii">
20.1884 
                </DataArray>
                <DataArray type="Float64" Name="D2" format="ascii">
28.1376 
                </DataArray>
                <DataArray type="Float64" Name="k1" format="ascii">
0.910378 
                </DataArray>
                <DataArray type="Float64" Name="k2" format="ascii">
0.1 
                </DataArray>
                <DataArray type="Float64" Name="k3" format="ascii">
1 
                </DataArray>
                <DataArray type="Int64" Name="cell_type" format="ascii">
0 
                </DataArray>
                <DataArray type="Float64" Name="perimeter" format="ascii">
6.31016 
                </DataArray>
                <DataArray type="Float64" Name="neighbors" format="ascii">
0 
                </DataArray>
            </CellData>
            <Points>
                <DataArray type="Float64" Name="Points" NumberOfComponents="3" format="ascii">
1.00533 -2.14838e-13 0 0.992949 0.157268 0 0.956122 0.310663 0 0.895752 0.456409 0 0.813326 0.590916 0 0.710873 0.710873 0 0.590916 0.813326 0 0.456409 0.895752 0 0.310663 0.956122 0 0.157268 0.992949 0 -3.55721e-10 1.00533 0 -0.157268 0.992949 0 -0.310663 0.956122 0 -0.456409 0.895752 0 -0.590916 0.813326 0 -0.710873 0.710873 0 -0.813326 0.590916 0 -0.895752 0.456409 0 -0.956122 0.310663 0 -0.992949 0.157268 0 -1.00533 -2.15315e-13 0 -0.992949 -0.157268 0 -0.956122 -0.310663 0 -0.895752 -0.456409 0 -0.813326 -0.590916 0 -0.710873 -0.710873 0 -0.590916 -0.813326 0 -0.456409 -0.895752 0 -0.310663 -0.956122 0 -0.157268 -0.992949 0 -3.55721e-10 -1.00533 0 0.157268 -0.992949 0 0.310663 -0.956122 0 0.456409 -0.895752 0 0.590916 -0.813326 0 0.710873 -0.710873 0 0.813326 -0.590916 0 0.895752 -0.456409 0 0.956122 -0.310663 0 0.992949 -0.157268 0 
                </DataArray>
            </Points>
            <Polys>
                <DataArray type="Int64" Name="connectivity" format="ascii">
0 1 2 3 4 5 6 7 8 9 10 11 12 13 14 15 16 17 18 19 20 21 22 23 24 25 26 27 28 29 30 31 32 33 34 35 36 37 38 39 
                </DataArray>
                <DataArray type="Int64" Name="offsets" format="ascii">
40 
                </DataArray>
            </Polys>
        </Piece>
    </PolyData>
</VTKFile>
