<VTKFile type="PolyData" version="0.1" byte_order="LittleEndian">
    <PolyData>
        <Piece NumberOfPoints="1758" NumberOfPolys="40">
            <CellData>
                <DataArray type="Float64" Name="area" format="ascii">
2.24217 2.85401 3.04386 1.8016 2.18451 2.65641 2.75216 2.75741 3.05225 2.13933 2.97959 1.32886 2.38783 3.14852 3.57016 1.25384 2.16338 2.14432 2.01365 1.66829 1.72712 2.80874 2.6809 2.44821 1.95658 2.45341 2.14076 2.78545 2.25483 2.31179 2.07014 1.81537 1.87785 2.43861 1.99809 1.77556 1.57648 1.63026 1.61896 1.34838 
                </DataArray>
                <DataArray type="Float64" Name="c1" format="ascii">
0.0513386 0.0186766 0.0218432 0.0208381 0.0206218 0.01156 0.0280676 0.0409231 0.013356 0.0265464 0.0118805 0.0167673 0.014576 0.0305189 0.0402748 0.0292008 0.0141439 0.0359804 0.0190269 0.0265248 0.0110477 0.0136463 0.016684 0.0219781 0.0172344 0.0148851 0.0423163 0.0381085 0.0163402 0.0195868 0.0203356 0.0251062 0.0164397 0.0382792 0.0285988 0.0155615 0.0125856 0.0306531 0.0341081 0.0148336 
                </DataArray>
                <DataArray type="Float64" Name="c2" format="ascii">
0.519611 0.630547 0.540703 0.644197 0.690775 0.8503 0.480936 0.445732 0.835033 0.514836 0.658369 0.765815 0.56633 0.601873 0.475666 0.469238 0.74876 0.526927 0.625376 0.556008 0.783471 0.673948 0.733305 0.638444 0.598618 0.8205 0.421187 0.47824 0.700929 0.509247 0.693566 0.567904 0.712499 0.535159 0.591895 0.588847 0.750498 0.509216 0.442366 0.859799 
                </DataArray>
                <DataArray type="Float64" Name="grad_c1" NumberOfComponents="2" format="ascii">
0.00247208 -0.00120715 0.00247311 0.00230407 0.00212222 0.00375451 0.00319797 -0.00312935 0.0039355 -0.00137 0.000744819 0.000953541 0.00184846 0.00483613 0.0022118 -0.00233358 0.0013291 -0.000986916 0.000605918 -0.00525165 0.000734095 0.0015892 0.00232053 0.000353016 0.000960654 0.00225046 0.00911548 0.000647256 -0.00174875 0.00525992 0.000290206 -0.00536852 0.00139023 0.00124928 0.00196221 -0.0112977 0.00182449 -0.00308643 0.00385455 0.00481876 0.000711753 0.00109093 0.00116032 0.00164349 0.00230829 -0.00155853 0.00410663 0.00226937 0.00176712 0.00254388 0.00123503 0.000929043 0.00518112 -0.00739611 -0.00299516 -0.00690367 0.00181704 -0.00208939 0.00138474 0.00342405 0.00388381 0.000498454 0.00232739 -0.00521153 0.00218325 0.00129505 0.00603395 0.0100091 0.00585876 -0.00546127 0.00130158 0.00231714 0.00108969 0.00125475 0.002347 0.00615691 0.000674769 -0.00520401 0.00132824 -0.000522724 
                </DataArray>
                <DataArray type="Float64" Name="grad_c2" NumberOfComponents="2" format="ascii">
-0.0353766 0.00035023 -0.052925 -8.84695e-05 -0.033759 -0.0065082 -0.0532245 0.0143373 -0.0661017 0.00485475 -0.0756569 -0.0108553 -0.0277365 -0.00334273 -0.0182864 -0.00320638 -0.0658363 0.0065006 -0.0367451 0.0174171 -0.0523704 -0.0156485 -0.077774 0.00278003 -0.0384343 -0.0157688 -0.0501495 0.00193811 -0.024588 0.00113088 -0.0237676 0.00924773 -0.0744118 -0.00754255 -0.036073 0.0109198 -0.0490386 0.0223641 -0.0405021 0.00163757 -0.0664201 -0.0175586 -0.0597596 -0.019855 -0.0604933 0.0127037 -0.0530917 0.00443352 -0.0458856 -0.00840026 -0.0981674 0.0220055 -0.0174697 -0.00472947 -0.026391 0.00473178 -0.0566963 0.0205746 -0.0326581 -0.0110627 -0.0641467 0.0088914 -0.0377151 0.0173247 -0.0609525 0.004145 -0.0376678 0.00284154 -0.0489454 0.010065 -0.0397217 -0.0190567 -0.0661676 -0.0161937 -0.0303709 -0.00115852 -0.0241664 0.00748932 -0.0828503 -0.0347791 
                </DataArray>
                <DataArray type="Float64" Name="D1" format="ascii">
20.1884 47.8887 46.4257 29.5543 23.66 26.9155 31.6639 27.4076 30.8932 41.7876 28.6995 27.0936 25.8601 46.5973 31.4408 35.0437 37.913 16.8386 22.4411 28.3868 31.9534 36.3592 34.0147 20.1184 48.0826 38.3651 47.2917 29.8961 38.9749 43.0421 26.8686 32.3324 29.6121 52.4272 42.8323 25.5713 28.1693 45.098 44.1968 28.4491 
                </DataArray>
                <DataArray type="Float64" Name="D2" format="ascii">
28.1376 29.476 55.2662 32.7903 26.1502 20.7843 31.7025 33.9204 29.999 25.2094 41.1061 34.7848 33.2469 38.6467 34.7848 56.3213 22.3241 25.0052 21.7317 17.7694 45.6173 35.0981 35.203 30.2212 14.9015 18.5881 34.7508 28.0313 24.2088 26.0686 28.7328 30.8758 30.5008 53.0714 18.1999 22.0737 37.4859 35.7535 23.7409 30.8278 
                </DataArray>
                <DataArray type="Float64" Name="k1" format="ascii">
0.910378 0.571072 1.14395 1.54432 0.926629 1.25016 0.575564 1.55852 0.945503 0.860941 0.791226 0.616893 1.05281 1.17647 0.817944 0.63907 0.482176 1.56031 0.91796 0.830993 0.79104 0.957837 0.807719 1.03161 1.08356 0.877557 1.01713 0.934678 0.868774 1.64607 0.737187 1.13232 0.856645 1.08628 0.597704 0.754089 0.758816 0.893221 0.690579 1.14494 
                </DataArray>
                <DataArray type="Float64" Name="k2" format="ascii">
0.1 0.1 0.1 0.1 0.1 0.1 0.1 0.1 0.1 0.1 0.1 0.1 0.1 0.1 0.1 0.1 0.1 0.1 0.1 0.1 0.1 0.1 0.1 0.1 0.1 0.1 0.1 0.1 0.1 0.1 0.1 0.1 0.1 0.1 0.1 0.1 0.1 0.1 0.1 0.1 
                </DataArray>
                <DataArray type="Float64" Name="k3" format="ascii">
1 1 1 1 1 1 1 1 1 1 1 1 1 1 1 1 1 1 1 1 1 1 1 1 1 1 1 1 1 1 1 1 1 1 1 1 1 1 1 1 
                </DataArray>
                <DataArray type="Int64" Name="cell_type" format="ascii">
0 1 1 1 1 1 1 1 1 1 1 1 1 1 1 1 1 1 1 1 1 1 1 1 1 1 1 1 1 1 1 1 1 1 1 1 1 1 1 1 
                </DataArray>
                <DataArray type="Float64" Name="perimeter" format="ascii">
5.63177 6.46986 6.55714 5.05481 5.45488 5.96729 6.1079 6.08285 6.28597 5.29383 6.24248 4.30171 5.64051 6.66747 6.96017 4.09443 5.60786 5.35798 5.18533 4.7376 4.85482 6.4795 6.02345 5.74118 5.14334 5.75863 5.36574 6.11584 5.45707 5.51859 5.30558 4.95676 5.04326 5.78409 5.18865 4.96183 4.63239 4.69715 4.65085 4.24078 
                </DataArray>
                <DataArray type="Float64" Name="neighbors" format="ascii">
5 7 7 6 5 3 4 4 1 4 3 3 3 6 6 3 6 5 3 5 3 7 4 5 4 4 2 7 3 3 4 5 4 5 5 5 4 5 4 2 
                </DataArray>
            </CellData>
            <Points>
                <DataArray type="Float64" Name="Points" NumberOfComponents="3" format="ascii">
-6.92592 1.54136 0 -6.91614 1.4373 0 -6.90579 1.33439 0 -6.82901 1.22541 0 -6.72185 1.18139 0 -6.61398 1.1374 0 -6.50542 1.09305 0 -6.39614 1.04756 0 -6.28788 1.00212 0 -6.18144 0.956859 0 -6.0757 0.911327 0 -5.96916 0.864793 0 -5.86132 0.817047 0 -5.75252 0.767808 0 -5.64323 0.717723 0 -5.5278 0.709855 0 -5.41448 0.725601 0 -5.31336 0.830466 0 -5.21553 0.943922 0 -5.12491 1.06702 0 -5.04086 1.19575 0 -4.96296 1.33094 0 -4.89388 1.46779 0 -4.9344 1.56741 0 -5.00442 1.64938 0 -5.07595 1.73136 0 -5.14746 1.81311 0 -5.22003 1.89532 0 -5.29481 1.97732 0 -5.39777 2.08998 0 -5.52922 2.16368 0 -5.66848 2.2155 0 -5.81771 2.21285 0 -5.96626 2.21146 0 -6.11527 2.21098 0 -6.26368 2.21241 0 -6.40958 2.21661 0 -6.55366 2.22378 0 -6.67779 2.15682 0 -6.82268 2.03946 0 -6.94038 1.89602 0 -6.94051 1.77681 0 -6.93575 1.65965 0 -7.78185 -1.14783 0 -7.85312 -1.0124 0 -7.96583 -0.93239 0 -8.07955 -0.951855 0 -8.19194 -0.97016 0 -8.30327 -0.986309 0 -8.41446 -1.0013 0 -8.52542 -1.01582 0 -8.63671 -1.02992 0 -8.74963 -1.04338 0 -8.86296 -1.05639 0 -8.97563 -1.06865 0 -9.08852 -1.07988 0 -9.20501 -1.09042 0 -9.30463 -1.18752 0 -9.3562 -1.31188 0 -9.41232 -1.43815 0 -9.4563 -1.52634 0 -9.50236 -1.60999 0 -9.54661 -1.69161 0 -9.59527 -1.77157 0 -9.64431 -1.8503 0 -9.69192 -1.92887 0 -9.69484 -2.04734 0 -9.68565 -2.1657 0 -9.65565 -2.27908 0 -9.626 -2.39234 0 -9.5968 -2.50537 0 -9.56586 -2.61934 0 -9.49114 -2.69932 0 -9.40725 -2.77033 0 -9.23455 -2.80599 0 -9.12251 -2.82857 0 -9.01089 -2.84883 0 -8.86836 -2.78378 0 -8.76004 -2.69036 0 -8.64999 -2.60029 0 -8.53615 -2.51255 0 -8.41827 -2.42906 0 -8.28748 -2.3566 0 -8.19788 -2.31278 0 -8.10858 -2.26904 0 -7.92634 -2.19911 0 -7.73964 -2.1447 0 -7.65151 -2.07735 0 -7.61625 -1.98673 0 -7.58334 -1.8963 0 -7.55043 -1.80554 0 -7.51756 -1.7149 0 -7.48669 -1.62583 0 -7.59022 -1.47181 0 -7.68911 -1.31231 0 -7.59778 -1.96517 0 -7.63984 -2.08035 0 -7.58556 -2.21894 0 -7.48998 -2.34276 0 -7.40319 -2.47737 0 -7.32465 -2.61899 0 -7.2555 -2.76435 0 -7.19738 -2.91348 0 -7.15338 -3.06374 0 -7.07411 -3.19944 0 -6.97552 -3.3223 0 -6.84453 -3.40816 0 -6.71573 -3.49829 0 -6.59007 -3.59174 0 -6.45186 -3.59228 0 -6.3144 -3.57315 0 -6.17968 -3.53537 0 -6.07564 -3.41405 0 -5.97203 -3.29298 0 -5.86768 -3.17126 0 -5.76302 -3.05019 0 -5.65894 -2.93059 0 -5.55404 -2.81005 0 -5.49525 -2.64563 0 -5.54444 -2.49326 0 -5.5792 -2.38632 0 -5.61422 -2.28013 0 -5.64965 -2.1729 0 -5.68501 -2.06642 0 -5.7201 -1.96108 0 -5.75712 -1.85541 0 -5.90009 -1.79387 0 -6.0403 -1.72605 0 -6.17695 -1.65392 0 -6.31315 -1.57588 0 -6.38186 -1.53758 0 -6.47845 -1.52414 0 -6.61574 -1.553 0 -6.75765 -1.57676 0 -6.89779 -1.59524 0 -7.04087 -1.60976 0 -7.18411 -1.62009 0 -7.32792 -1.62596 0 -7.4742 -1.62673 0 -7.5128 -1.73093 0 -7.55047 -1.83494 0 -8.78429 3.14259 0 -8.69139 3.08015 0 -8.58079 3.08485 0 -8.47251 3.10843 0 -8.38416 3.18832 0 -8.29433 3.26716 0 -8.2031 3.34499 0 -8.11059 3.42144 0 -8.01734 3.49619 0 -7.92337 3.56917 0 -7.82882 3.64043 0 -7.73359 3.71016 0 -7.63777 3.77862 0 -7.54186 3.8462 0 -7.48875 3.96522 0 -7.45638 4.09193 0 -7.46831 4.21819 0 -7.55225 4.37629 0 -7.68661 4.45835 0 -7.82142 4.54004 0 -7.95638 4.62166 0 -8.09141 4.70325 0 -8.23364 4.72366 0 -8.35369 4.67461 0 -8.47375 4.62431 0 -8.59419 4.57371 0 -8.71502 4.52253 0 -8.83624 4.47062 0 -8.95756 4.41802 0 -9.04759 4.31775 0 -9.04587 4.19562 0 -9.04071 4.02795 0 -9.0334 3.86057 0 -9.02357 3.69343 0 -9.01062 3.52698 0 -8.9952 3.36032 0 -8.93329 3.24446 0 -8.85847 3.19332 0 -10.2658 2.09572 0 -10.2187 1.99977 0 -10.1593 1.90943 0 -10.0852 1.82536 0 -9.9786 1.8317 0 -9.86871 1.83286 0 -9.76005 1.83262 0 -9.65162 1.82932 0 -9.54302 1.82512 0 -9.43471 1.81737 0 -9.32598 1.80471 0 -9.21586 1.78933 0 -9.1084 1.77156 0 -9.00414 1.75374 0 -8.90357 1.79477 0 -8.81093 1.84826 0 -8.72693 1.91655 0 -8.64277 2.0486 0 -8.5616 2.17739 0 -8.48318 2.30485 0 -8.41034 2.43623 0 -8.44418 2.56721 0 -8.48806 2.69692 0 -8.53201 2.82667 0 -8.60558 2.95082 0 -8.69197 3.06734 0 -8.79741 3.13949 0 -8.92977 3.23005 0 -9.06584 3.25241 0 -9.16115 3.22729 0 -9.25542 3.20257 0 -9.3493 3.17764 0 -9.4427 3.15263 0 -9.53561 3.12767 0 -9.6284 3.10258 0 -9.72126 3.077 0 -9.81499 3.05143 0 -9.9102 3.02501 0 -10.0073 2.99772 0 -10.0865 2.93147 0 -10.1553 2.85756 0 -10.2109 2.77807 0 -10.2542 2.69266 0 -10.2907 2.58809 0 -10.3133 2.47923 0 -10.319 2.37278 0 -10.3099 2.26604 0 -10.293 2.17931 0 -11.8706 -4.47555 0 -11.724 -4.49435 0 -11.5777 -4.49428 0 -11.4321 -4.47474 0 -11.3347 -4.35586 0 -11.2336 -4.23664 0 -11.1728 -4.10899 0 -11.1373 -3.9723 0 -11.1454 -3.82679 0 -11.1402 -3.67741 0 -11.1242 -3.53029 0 -11.0987 -3.38677 0 -11.063 -3.247 0 -11.0179 -3.11261 0 -11.0335 -2.97611 0 -11.1282 -2.87611 0 -11.2233 -2.77342 0 -11.3022 -2.68646 0 -11.38 -2.59764 0 -11.4549 -2.50509 0 -11.5278 -2.41313 0 -11.6509 -2.40476 0 -11.7723 -2.41214 0 -11.8927 -2.43272 0 -12.0102 -2.46777 0 -12.1232 -2.51945 0 -12.2301 -2.58574 0 -12.3276 -2.66344 0 -12.415 -2.75049 0 -12.492 -2.84753 0 -12.5569 -2.95474 0 -12.6103 -3.07039 0 -12.6508 -3.19311 0 -12.6761 -3.3208 0 -12.6864 -3.44993 0 -12.6785 -3.59373 0 -12.6488 -3.73426 0 -12.6012 -3.87075 0 -12.536 -3.99951 0 -12.4531 -4.11726 0 -12.3571 -4.22193 0 -12.2502 -4.31142 0 -12.1323 -4.38401 0 -12.0053 -4.43866 0 -4.65483 -0.860216 0 -4.77661 -0.847671 0 -4.87657 -0.909958 0 -4.96989 -0.984203 0 -5.02921 -1.08747 0 -5.09336 -1.18761 0 -5.16083 -1.28315 0 -5.23265 -1.37667 0 -5.30858 -1.46542 0 -5.38789 -1.55157 0 -5.47157 -1.6334 0 -5.55823 -1.71085 0 -5.6485 -1.78612 0 -5.74404 -1.85717 0 -5.70137 -1.98584 0 -5.65853 -2.11445 0 -5.61563 -2.24406 0 -5.58203 -2.34568 0 -5.54899 -2.44684 0 -5.51675 -2.54655 0 -5.48299 -2.64662 0 -5.39787 -2.73445 0 -5.31221 -2.76075 0 -5.22811 -2.78586 0 -5.14449 -2.81142 0 -5.06108 -2.83708 0 -4.89371 -2.8895 0 -4.81017 -2.91585 0 -4.72626 -2.9408 0 -4.62322 -2.91395 0 -4.52261 -2.87836 0 -4.42691 -2.83386 0 -4.33721 -2.78007 0 -4.25318 -2.71769 0 -4.17446 -2.6482 0 -4.10213 -2.57149 0 -4.03773 -2.48724 0 -3.98165 -2.39687 0 -3.93399 -2.30183 0 -3.89601 -2.20325 0 -3.86888 -2.10201 0 -3.8525 -1.99875 0 -3.84619 -1.8946 0 -3.84957 -1.79051 0 -3.86272 -1.68658 0 -3.88569 -1.58345 0 -3.91832 -1.48265 0 -3.96028 -1.38546 0 -4.01098 -1.29315 0 -4.10835 -1.15984 0 -4.22535 -1.04523 0 -4.35883 -0.94941 0 -4.50634 -0.876233 0 -2.87055 0.526099 0 -2.76714 0.563835 0 -2.60204 0.651976 0 -2.45614 0.765534 0 -2.32787 0.903917 0 -2.22167 1.06465 0 -2.1454 1.24002 0 -2.202 1.35867 0 -2.26266 1.47806 0 -2.32394 1.59697 0 -2.38503 1.71252 0 -2.44759 1.82643 0 -2.5128 1.93997 0 -2.58013 2.05497 0 -2.64594 2.16965 0 -2.71138 2.28201 0 -2.82779 2.35542 0 -2.94202 2.36686 0 -3.08312 2.38026 0 -3.22776 2.39874 0 -3.38153 2.41744 0 -3.53018 2.4351 0 -3.68711 2.35629 0 -3.78186 2.20927 0 -3.87742 2.0566 0 -3.93616 1.96298 0 -3.99396 1.87298 0 -4.0527 1.78642 0 -4.11246 1.70006 0 -4.17086 1.61426 0 -4.19102 1.50306 0 -4.1073 1.36501 0 -4.0201 1.22572 0 -3.95238 1.12572 0 -3.88026 1.02821 0 -3.80718 0.932938 0 -3.73257 0.840248 0 -3.65447 0.750669 0 -3.57614 0.66329 0 -3.49597 0.578204 0 -3.40598 0.496249 0 -3.30221 0.482295 0 -3.19553 0.477781 0 -3.08688 0.483145 0 -2.97795 0.499272 0 -11.2462 3.26212 0 -11.0888 3.31795 0 -10.9431 3.39898 0 -10.813 3.50283 0 -10.79 3.62186 0 -10.7682 3.74156 0 -10.7458 3.86085 0 -10.7227 3.98045 0 -10.6988 4.10065 0 -10.6739 4.22106 0 -10.6482 4.34155 0 -10.6218 4.46192 0 -10.5942 4.58303 0 -10.5672 4.7045 0 -10.6536 4.84552 0 -10.762 4.97082 0 -10.89 5.07677 0 -10.9771 5.13152 0 -11.0691 5.17742 0 -11.166 5.2126 0 -11.2651 5.23993 0 -11.4118 5.25909 0 -11.5596 5.25835 0 -11.7058 5.23544 0 -11.8471 5.19193 0 -11.9809 5.12824 0 -12.1043 5.04579 0 -12.2144 4.9465 0 -12.3093 4.83241 0 -12.3867 4.70556 0 -12.4449 4.56904 0 -12.4826 4.42567 0 -12.4992 4.2782 0 -12.4942 4.12968 0 -12.4677 3.98371 0 -12.4201 3.84338 0 -12.3524 3.71177 0 -12.2665 3.59182 0 -12.1641 3.48557 0 -12.0477 3.39537 0 -11.9199 3.32355 0 -11.7831 3.27142 0 -11.6396 3.23988 0 -11.5082 3.22972 0 -11.3763 3.23707 0 -5.57951 5.12989 0 -5.69311 5.06864 0 -5.79218 4.99123 0 -5.8761 4.90226 0 -5.94796 4.80586 0 -5.94378 4.70976 0 -5.93822 4.61646 0 -5.9312 4.52503 0 -5.92322 4.43413 0 -5.91456 4.34225 0 -5.90584 4.24801 0 -5.89779 4.15248 0 -5.89103 4.05584 0 -5.8859 3.95708 0 -5.79918 3.85413 0 -5.69204 3.78978 0 -5.58395 3.72018 0 -5.42801 3.61979 0 -5.27809 3.52596 0 -5.1831 3.51413 0 -5.09508 3.5102 0 -5.00273 3.53873 0 -4.90431 3.56952 0 -4.80495 3.59879 0 -4.71275 3.62401 0 -4.6127 3.65059 0 -4.53662 3.71419 0 -4.49919 3.87707 0 -4.47509 3.96749 0 -4.44884 4.05703 0 -4.4165 4.15566 0 -4.38393 4.25135 0 -4.35262 4.33953 0 -4.31991 4.42849 0 -4.34281 4.54568 0 -4.38577 4.66175 0 -4.47586 4.81522 0 -4.59719 4.95553 0 -4.74547 5.07021 0 -4.90936 5.14498 0 -5.08181 5.1933 0 -5.25569 5.20765 0 -5.42132 5.18329 0 -7.59064 -4.85198 0 -7.68969 -4.81254 0 -7.85235 -4.74101 0 -8.01291 -4.66302 0 -8.18916 -4.61957 0 -8.29577 -4.66748 0 -8.40327 -4.71813 0 -8.50913 -4.76851 0 -8.61574 -4.81962 0 -8.72099 -4.86877 0 -8.82719 -4.91728 0 -8.9347 -4.96489 0 -9.04165 -5.01135 0 -9.14784 -5.05715 0 -9.25485 -5.10432 0 -9.29677 -5.2486 0 -9.31868 -5.40002 0 -9.31703 -5.55121 0 -9.3 -5.66256 0 -9.27086 -5.77124 0 -9.23126 -5.87618 0 -9.18067 -5.97685 0 -9.11851 -6.072 0 -9.04572 -6.15978 0 -8.93496 -6.26293 0 -8.80892 -6.34933 0 -8.67138 -6.41591 0 -8.52689 -6.46276 0 -8.37701 -6.49077 0 -8.22435 -6.49733 0 -8.07292 -6.48249 0 -7.92531 -6.44722 0 -7.78395 -6.39107 0 -7.65171 -6.31624 0 -7.5319 -6.22344 0 -7.42762 -6.11459 0 -7.3403 -5.99322 0 -7.27072 -5.86022 0 -7.21263 -5.68767 0 -7.18557 -5.511 0 -7.24343 -5.3541 0 -7.3002 -5.19776 0 -7.35606 -5.04215 0 -7.41914 -4.96168 0 -7.49007 -4.88775 0 -10.7185 1.3722 0 -10.843 1.36411 0 -10.971 1.35425 0 -11.0934 1.31199 0 -11.1261 1.23869 0 -11.1532 1.16208 0 -11.1759 1.07965 0 -11.1984 0.992845 0 -11.225 0.904373 0 -11.2448 0.821534 0 -11.2624 0.747543 0 -11.2817 0.665216 0 -11.2953 0.587519 0 -11.3055 0.521489 0 -11.3136 0.441643 0 -11.2631 0.364898 0 -11.1906 0.314858 0 -11.0853 0.248647 0 -10.9812 0.182836 0 -10.8864 0.126467 0 -10.7934 0.076827 0 -10.6927 0.0136584 0 -10.5803 -0.0450719 0 -10.4127 -0.023205 0 -10.2582 0.0326003 0 -10.1216 0.123561 0 -10.0457 0.20018 0 -9.97605 0.292146 0 -9.99985 0.374752 0 -10.0268 0.45494 0 -10.0929 0.618263 0 -10.1353 0.721098 0 -10.1835 0.823273 0 -10.23 0.917123 0 -10.2783 1.01021 0 -10.3282 1.10534 0 -10.3755 1.20036 0 -10.4269 1.30296 0 -10.564 1.34108 0 -5.46892 -5.0624 0 -5.44693 -4.92283 0 -5.44509 -4.78074 0 -5.46357 -4.63843 0 -5.53863 -4.57055 0 -5.61476 -4.50458 0 -5.69125 -4.43862 0 -5.76769 -4.37289 0 -5.84413 -4.30715 0 -5.92061 -4.24178 0 -5.99695 -4.17669 0 -6.07353 -4.11144 0 -6.15016 -4.04672 0 -6.26726 -4.05029 0 -6.38122 -4.0707 0 -6.48982 -4.107 0 -6.59061 -4.16034 0 -6.65539 -4.23809 0 -6.72204 -4.31458 0 -6.79038 -4.38964 0 -6.8606 -4.46325 0 -6.93324 -4.53544 0 -7.00733 -4.60613 0 -7.08309 -4.67478 0 -7.16046 -4.74085 0 -7.23951 -4.80433 0 -7.3217 -4.86767 0 -7.34441 -5.04512 0 -7.30977 -5.14166 0 -7.27507 -5.23783 0 -7.24037 -5.33341 0 -7.20519 -5.42901 0 -7.17413 -5.50911 0 -7.10584 -5.57592 0 -6.95234 -5.68745 0 -6.77937 -5.76728 0 -6.59293 -5.81295 0 -6.40174 -5.82309 0 -6.2117 -5.79793 0 -6.05915 -5.75023 0 -5.91602 -5.67963 0 -5.78767 -5.5881 0 -5.67715 -5.47777 0 -5.58636 -5.35165 0 -5.51623 -5.2123 0 -7.97984 2.29815 0 -8.08258 2.32622 0 -8.2436 2.37705 0 -8.40431 2.42151 0 -8.47825 2.29359 0 -8.55607 2.16743 0 -8.63678 2.03943 0 -8.72032 1.90818 0 -8.77464 1.75054 0 -8.80895 1.58465 0 -8.77682 1.41937 0 -8.75354 1.24999 0 -8.73805 1.07693 0 -8.73125 0.904624 0 -8.73321 0.732502 0 -8.64058 0.599914 0 -8.51541 0.528607 0 -8.39063 0.452418 0 -8.24997 0.363252 0 -8.11012 0.270073 0 -7.99925 0.193505 0 -7.88806 0.114306 0 -7.78005 0.139328 0 -7.67222 0.179197 0 -7.56931 0.234644 0 -7.47479 0.302178 0 -7.43549 0.416977 0 -7.39005 0.525676 0 -7.33961 0.628248 0 -7.28488 0.727416 0 -7.22616 0.824976 0 -7.16446 0.920293 0 -7.09899 1.01396 0 -7.0273 1.1074 0 -6.9513 1.19926 0 -6.91657 1.34223 0 -6.93245 1.5004 0 -6.9458 1.66059 0 -6.95045 1.77438 0 -6.95034 1.88723 0 -7.01603 1.97332 0 -7.08756 2.05332 0 -7.16372 2.1283 0 -7.24524 2.19775 0 -7.35271 2.2015 0 -7.45845 2.20928 0 -7.56421 2.21947 0 -7.66901 2.23188 0 -7.77417 2.24869 0 -7.8769 2.27229 0 -4.19801 1.49242 0 -4.30902 1.53572 0 -4.40161 1.52733 0 -4.49558 1.51937 0 -4.68401 1.5047 0 -4.77902 1.49827 0 -4.88175 1.4634 0 -4.95394 1.32666 0 -5.03204 1.19109 0 -5.11686 1.06115 0 -5.20848 0.936773 0 -5.30747 0.822113 0 -5.41294 0.712395 0 -5.44823 0.621205 0 -5.47808 0.526515 0 -5.47689 0.350299 0 -5.4814 0.177046 0 -5.49245 0.00480652 0 -5.51123 -0.167276 0 -5.46941 -0.250811 0 -5.39832 -0.305729 0 -5.32598 -0.360043 0 -5.26017 -0.418279 0 -5.18593 -0.483886 0 -5.11581 -0.559482 0 -5.04831 -0.633128 0 -4.98037 -0.710184 0 -4.88462 -0.777745 0 -4.78091 -0.836086 0 -4.6914 -0.846057 0 -4.60036 -0.856227 0 -4.50899 -0.865549 0 -4.42197 -0.847599 0 -4.33636 -0.823652 0 -4.25135 -0.794574 0 -4.16932 -0.760377 0 -4.08989 -0.719621 0 -4.01368 -0.673312 0 -3.94075 -0.622549 0 -3.87209 -0.565954 0 -3.80889 -0.503516 0 -3.73544 -0.417347 0 -3.66854 -0.324761 0 -3.61206 -0.232378 0 -3.56157 -0.135831 0 -3.51642 -0.0362832 0 -3.4786 0.0645796 0 -3.44974 0.168549 0 -3.43163 0.276369 0 -3.42262 0.385513 0 -3.42113 0.494676 0 -3.50367 0.571796 0 -3.58418 0.657299 0 -3.66362 0.745964 0 -3.7408 0.834537 0 -3.81388 0.925328 0 -3.88523 1.01823 0 -3.95461 1.11144 0 -4.0193 1.20592 0 -4.08009 1.30237 0 -4.13954 1.3983 0 -3.96222 3.27263 0 -3.89185 3.2274 0 -3.79665 3.23099 0 -3.74231 3.28524 0 -3.68647 3.34328 0 -3.62989 3.39759 0 -3.57343 3.45206 0 -3.52005 3.50372 0 -3.46372 3.55177 0 -3.40964 3.60222 0 -3.35758 3.65197 0 -3.30882 3.69936 0 -3.25817 3.75177 0 -3.20669 3.81248 0 -3.20709 3.91835 0 -3.21893 4.02599 0 -3.24524 4.12726 0 -3.30893 4.27164 0 -3.39337 4.39273 0 -3.50829 4.48647 0 -3.64679 4.54679 0 -3.78725 4.57781 0 -3.9218 4.57276 0 -4.0609 4.53852 0 -4.19399 4.49192 0 -4.31234 4.41841 0 -4.34219 4.33907 0 -4.37271 4.25327 0 -4.40327 4.16371 0 -4.43399 4.07052 0 -4.46048 3.98204 0 -4.48339 3.89806 0 -4.50435 3.81017 0 -4.5248 3.71294 0 -4.47648 3.62785 0 -4.39565 3.56366 0 -4.3066 3.50213 0 -4.21784 3.4434 0 -4.12803 3.3841 0 -4.04111 3.32556 0 -9.66511 -2.28197 0 -9.6957 -2.1682 0 -9.75601 -2.06342 0 -9.8316 -1.96771 0 -9.94645 -1.93298 0 -10.0615 -1.89472 0 -10.1755 -1.8543 0 -10.2882 -1.81206 0 -10.399 -1.76806 0 -10.5061 -1.7209 0 -10.6097 -1.67045 0 -10.7118 -1.6165 0 -10.8127 -1.55865 0 -10.9086 -1.49719 0 -11.0345 -1.48317 0 -11.1573 -1.53681 0 -11.2773 -1.59274 0 -11.345 -1.67848 0 -11.4013 -1.77089 0 -11.4487 -1.86784 0 -11.4863 -1.96949 0 -11.5142 -2.0744 0 -11.5275 -2.18208 0 -11.5326 -2.28955 0 -11.5241 -2.39928 0 -11.4359 -2.51285 0 -11.3695 -2.59454 0 -11.302 -2.67143 0 -11.2345 -2.74637 0 -11.1649 -2.82197 0 -11.095 -2.89651 0 -11.0236 -2.97075 0 -10.8906 -3.00351 0 -10.7581 -2.97978 0 -10.6228 -2.96368 0 -10.4853 -2.95518 0 -10.3479 -2.95347 0 -10.2105 -2.95834 0 -10.0756 -2.97354 0 -9.94193 -2.99123 0 -9.80753 -3.01013 0 -9.72564 -2.93203 0 -9.64649 -2.85348 0 -9.60374 -2.74302 0 -9.57565 -2.62778 0 -9.62002 -2.45453 0 -5.88049 2.22216 0 -5.773 2.22354 0 -5.66435 2.22606 0 -5.55593 2.28562 0 -5.46675 2.36556 0 -5.43287 2.46877 0 -5.4003 2.57586 0 -5.37028 2.68626 0 -5.34281 2.79443 0 -5.31681 2.90128 0 -5.29174 3.00459 0 -5.26993 3.09971 0 -5.25037 3.19741 0 -5.23178 3.30213 0 -5.21807 3.40533 0 -5.287 3.51871 0 -5.3861 3.5812 0 -5.52435 3.66992 0 -5.6653 3.7609 0 -5.80556 3.84596 0 -5.96843 3.8644 0 -6.12896 3.78426 0 -6.29051 3.7028 0 -6.4507 3.61645 0 -6.6124 3.52797 0 -6.77418 3.43944 0 -6.81974 3.34289 0 -6.85038 3.24053 0 -6.85252 3.13998 0 -6.85465 3.03836 0 -6.85741 2.93635 0 -6.86019 2.83438 0 -6.86509 2.66184 0 -6.79896 2.49531 0 -6.69443 2.35012 0 -6.55769 2.23487 0 -6.42501 2.22729 0 -6.29184 2.22311 0 -6.15661 2.22125 0 -6.01853 2.22116 0 -7.67065 6.16006 0 -7.81484 6.1269 0 -7.95114 6.0692 0 -8.07557 5.98852 0 -8.18451 5.88748 0 -8.18644 5.77876 0 -8.18642 5.67038 0 -8.18581 5.56245 0 -8.18468 5.45506 0 -8.18298 5.34813 0 -8.18067 5.24162 0 -8.17779 5.13559 0 -8.17455 5.03 0 -8.1711 4.92494 0 -8.16613 4.82059 0 -8.09244 4.71549 0 -8.00459 4.66241 0 -7.88927 4.59271 0 -7.77485 4.52347 0 -7.66159 4.45476 0 -7.54881 4.38758 0 -7.39964 4.41956 0 -7.29201 4.52753 0 -7.15925 4.66091 0 -7.02696 4.79406 0 -6.89555 4.92763 0 -6.76541 5.06285 0 -6.73394 5.17455 0 -6.71822 5.29061 0 -6.71952 5.40823 0 -6.73778 5.52514 0 -6.77271 5.63872 0 -6.82378 5.74642 0 -6.8901 5.84587 0 -6.97044 5.93493 0 -7.1209 6.0495 0 -7.29402 6.12759 0 -7.48053 6.16514 0 -6.4892 -1.51439 0 -6.42255 -1.37482 0 -6.4136 -1.2309 0 -6.40482 -1.0894 0 -6.39591 -0.944751 0 -6.38777 -0.800417 0 -6.3822 -0.654011 0 -6.43672 -0.576178 0 -6.50318 -0.503603 0 -6.59009 -0.466538 0 -6.67948 -0.428364 0 -6.77234 -0.389129 0 -6.865 -0.350269 0 -6.95795 -0.312851 0 -7.05277 -0.274761 0 -7.14554 -0.237476 0 -7.23797 -0.200727 0 -7.42749 -0.231983 0 -7.59961 -0.309905 0 -7.74371 -0.429883 0 -7.77576 -0.528575 0 -7.8064 -0.628737 0 -7.85774 -0.796653 0 -7.85896 -0.89908 0 -7.84736 -1.00192 0 -7.76466 -1.15829 0 -7.67684 -1.31339 0 -7.58224 -1.46585 0 -7.48101 -1.61502 0 -7.35592 -1.61625 0 -7.23131 -1.61216 0 -7.10684 -1.60464 0 -6.98244 -1.59391 0 -6.85956 -1.58023 0 -6.73709 -1.56328 0 -6.61272 -1.5422 0 -9.81971 -4.58023 0 -9.85484 -4.48669 0 -9.89222 -4.39532 0 -9.96934 -4.32945 0 -10.0611 -4.28156 0 -10.1671 -4.28585 0 -10.2725 -4.287 0 -10.3794 -4.28348 0 -10.4862 -4.27109 0 -10.5925 -4.25542 0 -10.6963 -4.23764 0 -10.8012 -4.21383 0 -10.9089 -4.18357 0 -11.0127 -4.15137 0 -11.1193 -4.18369 0 -11.2183 -4.23383 0 -11.2776 -4.30389 0 -11.3536 -4.39454 0 -11.4292 -4.48911 0 -11.4374 -4.58852 0 -11.4319 -4.68591 0 -11.4103 -4.7837 0 -11.3884 -4.88144 0 -11.3486 -4.97352 0 -11.303 -5.06102 0 -11.1828 -5.20933 0 -11.033 -5.32922 0 -10.8596 -5.41662 0 -10.7225 -5.45485 0 -10.5813 -5.47339 0 -10.4391 -5.47121 0 -10.2989 -5.44741 0 -10.1668 -5.40224 0 -10.0427 -5.33843 0 -9.93087 -5.25557 0 -9.83616 -5.15584 0 -9.75937 -5.0443 0 -9.7015 -4.91982 0 -9.75852 -4.75092 0 -9.72985 -4.80351 0 -9.69218 -4.9104 0 -9.62584 -4.95253 0 -9.55778 -4.99002 0 -9.41221 -5.05141 0 -9.33744 -5.07517 0 -9.26287 -5.09457 0 -9.1551 -5.04944 0 -9.04763 -5.00307 0 -8.94168 -4.95707 0 -8.83491 -4.90982 0 -8.72924 -4.86159 0 -8.62526 -4.81309 0 -8.52167 -4.76345 0 -8.41668 -4.71346 0 -8.30901 -4.66268 0 -8.20102 -4.61221 0 -8.1615 -4.49073 0 -8.18412 -4.35377 0 -8.20217 -4.21619 0 -8.21796 -4.04275 0 -8.22518 -3.95489 0 -8.27378 -3.86039 0 -8.39191 -3.74951 0 -8.50515 -3.63273 0 -8.60754 -3.51043 0 -8.70191 -3.38031 0 -8.76391 -3.28148 0 -8.82044 -3.17873 0 -8.8702 -3.07372 0 -8.91415 -2.9666 0 -9.01823 -2.85945 0 -9.16233 -2.83077 0 -9.28396 -2.80606 0 -9.40465 -2.78235 0 -9.52217 -2.81602 0 -9.6375 -2.86038 0 -9.71768 -2.93817 0 -9.79878 -3.01768 0 -9.784 -3.11699 0 -9.77122 -3.21833 0 -9.76405 -3.31971 0 -9.76347 -3.42279 0 -9.77007 -3.52732 0 -9.77781 -3.63121 0 -9.79133 -3.73857 0 -9.80711 -3.84498 0 -9.8295 -3.94791 0 -9.85881 -4.05112 0 -9.89174 -4.15302 0 -9.89536 -4.26885 0 -9.88496 -4.38642 0 -9.84303 -4.48936 0 -9.80437 -4.59304 0 -9.76654 -4.69792 0 -9.83404 4.92174 0 -9.93692 4.92599 0 -10.1035 4.90937 0 -10.2651 4.86565 0 -10.4173 4.79516 0 -10.5558 4.70049 0 -10.5875 4.5679 0 -10.6177 4.43441 0 -10.6467 4.30128 0 -10.6747 4.16835 0 -10.7016 4.03561 0 -10.7276 3.90295 0 -10.7528 3.77024 0 -10.777 3.63799 0 -10.8007 3.50501 0 -10.7155 3.3738 0 -10.6087 3.25827 0 -10.4836 3.16152 0 -10.3735 3.09993 0 -10.2565 3.05327 0 -10.1356 3.02234 0 -10.0133 3.00694 0 -9.90819 3.03591 0 -9.805 3.06452 0 -9.70297 3.09237 0 -9.60158 3.12023 0 -9.49989 3.14756 0 -9.39763 3.17508 0 -9.23791 3.21755 0 -9.07808 3.25932 0 -9.00572 3.36807 0 -9.02349 3.5572 0 -9.03725 3.7473 0 -9.04741 3.93868 0 -9.05418 4.13063 0 -9.05917 4.32284 0 -9.1183 4.4244 0 -9.20691 4.4917 0 -9.295 4.5593 0 -9.38323 4.62734 0 -9.47146 4.69557 0 -9.55831 4.76581 0 -9.64453 4.83704 0 -9.73207 4.90766 0 -9.46652 -0.76887 0 -9.39875 -0.876941 0 -9.33185 -0.986937 0 -9.20459 -1.07857 0 -9.08052 -1.06912 0 -8.9542 -1.05635 0 -8.83094 -1.04274 0 -8.7079 -1.02842 0 -8.58426 -1.0133 0 -8.46171 -0.997491 0 -8.33813 -0.981005 0 -8.214 -0.963363 0 -8.08914 -0.943375 0 -7.9638 -0.919982 0 -7.864 -0.783503 0 -7.80833 -0.601205 0 -7.753 -0.421103 0 -7.76043 -0.283609 0 -7.78617 -0.149614 0 -7.82985 -0.0214035 0 -7.89034 0.100576 0 -8.02411 0.19862 0 -8.16326 0.293694 0 -8.30416 0.385968 0 -8.44861 0.476233 0 -8.54462 0.533859 0 -8.64318 0.588431 0 -8.76365 0.581183 0 -8.87955 0.557136 0 -8.98102 0.497825 0 -9.0832 0.43817 0 -9.18293 0.381149 0 -9.28577 0.325732 0 -9.37506 0.280113 0 -9.46741 0.235209 0 -9.54346 0.161185 0 -9.61227 0.0781782 0 -9.66876 -0.0152797 0 -9.71007 -0.117935 0 -9.73849 -0.226333 0 -9.75217 -0.338024 0 -9.65419 -0.476354 0 -9.5601 -0.61863 0 -8.36389 -3.76236 0 -8.27179 -3.84765 0 -8.16194 -3.8651 0 -8.07555 -3.82703 0 -7.99004 -3.78623 0 -7.90508 -3.74364 0 -7.82108 -3.69958 0 -7.73858 -3.65422 0 -7.65729 -3.60705 0 -7.57748 -3.55825 0 -7.49906 -3.50806 0 -7.421 -3.45607 0 -7.34493 -3.40361 0 -7.27001 -3.35041 0 -7.21326 -3.26572 0 -7.17674 -3.1698 0 -7.16296 -3.06811 0 -7.20207 -2.93233 0 -7.25061 -2.80375 0 -7.30548 -2.68196 0 -7.36691 -2.56286 0 -7.43498 -2.44605 0 -7.51061 -2.33205 0 -7.59716 -2.22026 0 -7.7442 -2.15647 0 -7.92225 -2.20821 0 -8.09666 -2.27496 0 -8.26149 -2.35474 0 -8.4198 -2.44211 0 -8.56986 -2.55076 0 -8.71533 -2.66633 0 -8.85691 -2.78728 0 -8.90209 -2.96937 0 -8.86139 -3.06901 0 -8.81495 -3.16721 0 -8.76295 -3.26276 0 -8.70659 -3.35439 0 -8.64535 -3.44152 0 -8.58149 -3.5262 0 -8.51245 -3.60876 0 -8.43936 -3.68632 0 -10.5181 -0.286834 0 -10.5512 -0.165223 0 -10.5923 -0.0511555 0 -10.6947 0.00324864 0 -10.7945 0.0658715 0 -10.9043 0.123263 0 -11.0216 0.196026 0 -11.1523 0.277573 0 -11.2693 0.355762 0 -11.4286 0.378133 0 -11.5568 0.365426 0 -11.6853 0.343971 0 -11.8189 0.330632 0 -11.9594 0.312226 0 -12.0447 0.208607 0 -12.1152 0.088467 0 -12.1717 -0.0459989 0 -12.2143 -0.199104 0 -12.235 -0.339614 0 -12.2335 -0.48577 0 -12.2138 -0.632443 0 -12.1801 -0.774114 0 -12.1282 -0.913266 0 -12.0621 -1.04573 0 -12.0092 -1.13299 0 -11.9502 -1.21428 0 -11.8817 -1.28883 0 -11.8005 -1.35827 0 -11.7109 -1.41932 0 -11.6198 -1.46938 0 -11.5305 -1.50896 0 -11.4448 -1.53931 0 -11.3608 -1.56253 0 -11.2761 -1.57963 0 -11.1154 -1.50723 0 -11.0339 -1.47071 0 -10.9583 -1.38847 0 -10.9042 -1.21639 0 -10.8412 -1.05333 0 -10.7691 -0.891995 0 -10.69 -0.735043 0 -10.6039 -0.582039 0 -10.5099 -0.433896 0 -2.63766 2.50325 0 -2.699 2.41386 0 -2.70134 2.28671 0 -2.64306 2.18459 0 -2.58259 2.07914 0 -2.52139 1.97437 0 -2.46067 1.87015 0 -2.40301 1.76673 0 -2.34736 1.66341 0 -2.29316 1.55924 0 -2.24047 1.45651 0 -2.18795 1.35282 0 -2.13529 1.24919 0 -1.95592 1.236 0 -1.78141 1.2554 0 -1.61617 1.30988 0 -1.46865 1.3959 0 -1.39438 1.45713 0 -1.3319 1.52704 0 -1.2734 1.59737 0 -1.22496 1.67493 0 -1.17739 1.7559 0 -1.14392 1.84376 0 -1.11727 1.93614 0 -1.10363 2.03264 0 -1.09445 2.13148 0 -1.09909 2.23096 0 -1.11853 2.32787 0 -1.14488 2.42301 0 -1.18436 2.51658 0 -1.22713 2.60797 0 -1.33659 2.77088 0 -1.47939 2.90073 0 -1.5566 2.95941 0 -1.6374 3.01075 0 -1.72924 3.05157 0 -1.82681 3.07945 0 -1.92655 3.09742 0 -2.02676 3.10488 0 -2.12885 3.09796 0 -2.23069 3.0751 0 -2.31235 2.962 0 -2.3934 2.84858 0 -2.47437 2.73329 0 -2.55687 2.61907 0 -4.85409 3.5741 0 -4.97973 3.53554 0 -5.09698 3.49888 0 -5.2065 3.40454 0 -5.2239 3.2878 0 -5.24514 3.17082 0 -5.26825 3.05915 0 -5.29515 2.94834 0 -5.32276 2.83401 0 -5.35172 2.71778 0 -5.38329 2.59806 0 -5.41946 2.47825 0 -5.45654 2.36117 0 -5.43429 2.2293 0 -5.39207 2.09935 0 -5.30789 2.00635 0 -5.22222 1.91278 0 -5.12124 1.7984 0 -5.0