<VTKFile type="PolyData" version="0.1" byte_order="LittleEndian">
    <PolyData>
        <Piece NumberOfPoints="145" NumberOfPolys="3">
            <CellData>
                <DataArray type="Float64" Name="area" format="ascii">
3.29129 1.57941 1.63305 
                </DataArray>
                <DataArray type="Float64" Name="c1" format="ascii">
0.0543201 0.0335459 0.0368748 
                </DataArray>
                <DataArray type="Float64" Name="c2" format="ascii">
0.194006 0.222593 0.182131 
                </DataArray>
                <DataArray type="Float64" Name="grad_c1" NumberOfComponents="2" format="ascii">
0.00320312 0.000256492 0.00742039 0.0130653 -0.000239532 0.0154439 
                </DataArray>
                <DataArray type="Float64" Name="grad_c2" NumberOfComponents="2" format="ascii">
-0.0335507 -0.00538865 -0.038831 0.00674549 -0.0267184 0.00290409 
                </DataArray>
                <DataArray type="Float64" Name="D1" format="ascii">
20.1884 47.8887 46.4257 
                </DataArray>
                <DataArray type="Float64" Name="D2" format="ascii">
28.1376 29.476 55.2662 
                </DataArray>
                <DataArray type="Float64" Name="k1" format="ascii">
0.910378 0.571072 1.14395 
                </DataArray>
                <DataArray type="Float64" Name="k2" format="ascii">
0.1 0.1 0.1 
                </DataArray>
                <DataArray type="Float64" Name="k3" format="ascii">
1 1 1 
                </DataArray>
                <DataArray type="Int64" Name="cell_type" format="ascii">
0 1 1 
                </DataArray>
                <DataArray type="Float64" Name="perimeter" format="ascii">
6.46388 4.5536 4.61818 
                </DataArray>
                <DataArray type="Float64" Name="neighbors" format="ascii">
2 2 2 
                </DataArray>
            </CellData>
            <Points>
                <DataArray type="Float64" Name="Points" NumberOfComponents="3" format="ascii">
-1.77057 0.64842 0 -1.76744 0.540121 0 -1.73751 0.368824 0 -1.67682 0.207132 0 -1.60015 0.0619998 0 -1.50073 -0.0675274 0 -1.38245 -0.177959 0 -1.27894 -0.20377 0 -1.19531 -0.234039 0 -1.11205 -0.265641 0 -1.02598 -0.30746 0 -0.932499 -0.324049 0 -0.809845 -0.343422 0 -0.735306 -0.316873 0 -0.653606 -0.293721 0 -0.553155 -0.272314 0 -0.45252 -0.253454 0 -0.27807 -0.220689 0 -0.145859 -0.127889 0 -0.0293189 -0.0104055 0 0.0597019 0.12329 0 0.128694 0.268901 0 0.179079 0.424303 0 0.201121 0.525221 0 0.211798 0.628816 0 0.209153 0.733736 0 0.197288 0.83661 0 0.183575 0.936553 0 0.165283 1.03575 0 0.135112 1.13612 0 0.0882451 1.23358 0 0.0285858 1.3239 0 -0.0361538 1.40458 0 -0.10153 1.47402 0 -0.165845 1.53571 0 -0.231497 1.59044 0 -0.299257 1.63879 0 -0.37037 1.68117 0 -0.445742 1.71616 0 -0.524663 1.74466 0 -0.605821 1.7638 0 -0.689087 1.77527 0 -0.772965 1.77725 0 -0.856412 1.772 0 -0.939128 1.75688 0 -1.01951 1.73471 0 -1.09826 1.70425 0 -1.1761 1.66628 0 -1.25533 1.62173 0 -1.33678 1.56708 0 -1.4205 1.50129 0 -1.50005 1.42247 0 -1.56884 1.33399 0 -1.62181 1.24087 0 -1.66256 1.14721 0 -1.69801 1.05351 0 -1.7295 0.957484 0 -1.75254 0.857942 0 -1.76542 0.754758 0 -1.25067 -1.49783 0 -1.13857 -1.45125 0 -1.03358 -1.39255 0 -0.936139 -1.32268 0 -0.930855 -1.25005 0 -0.931244 -1.15349 0 -0.929541 -1.05845 0 -0.928586 -0.967476 0 -0.92329 -0.877839 0 -0.915455 -0.787424 0 -0.915947 -0.706748 0 -0.913695 -0.616258 0 -0.90513 -0.52004 0 -0.895279 -0.433753 0 -0.954787 -0.373519 0 -1.03077 -0.316737 0 -1.12198 -0.272317 0 -1.26557 -0.218894 0 -1.39649 -0.184388 0 -1.49308 -0.18133 0 -1.59081 -0.191164 0 -1.78163 -0.227063 0 -1.94648 -0.287784 0 -2.08057 -0.360217 0 -2.1855 -0.446768 0 -2.23757 -0.520514 0 -2.27914 -0.611904 0 -2.30697 -0.707695 0 -2.31984 -0.795717 0 -2.31866 -0.885963 0 -2.30335 -0.990329 0 -2.27019 -1.09138 0 -2.22623 -1.17979 0 -2.17678 -1.26264 0 -2.11841 -1.32614 0 -2.04393 -1.38018 0 -1.95477 -1.43406 0 -1.86646 -1.4628 0 -1.76477 -1.49318 0 -1.65106 -1.52056 0 -1.55091 -1.52762 0 -1.4521 -1.53101 0 -1.35205 -1.51907 0 -0.67998 -0.311598 0 -0.808079 -0.355068 0 -0.883112 -0.43005 0 -0.891907 -0.49292 0 -0.899511 -0.569509 0 -0.904268 -0.63505 0 -0.905765 -0.702209 0 -0.905362 -0.78856 0 -0.913407 -0.879107 0 -0.918434 -0.964378 0 -0.919483 -1.05079 0 -0.920933 -1.13137 0 -0.92005 -1.22237 0 -0.923509 -1.32255 0 -0.84027 -1.40237 0 -0.738842 -1.47747 0 -0.63371 -1.5367 0 -0.541631 -1.57085 0 -0.439289 -1.59171 0 -0.32764 -1.59481 0 -0.223929 -1.59843 0 -0.111468 -1.58353 0 -0.00050939 -1.56223 0 0.102403 -1.53549 0 0.201539 -1.48354 0 0.2846 -1.43411 0 0.350314 -1.37331 0 0.404293 -1.29222 0 0.452395 -1.2026 0 0.491018 -1.09797 0 0.514353 -0.992114 0 0.521675 -0.9003 0 0.513133 -0.806775 0 0.484205 -0.700683 0 0.440132 -0.602063 0 0.35495 -0.488008 0 0.248813 -0.401525 0 0.108618 -0.331004 0 -0.0708017 -0.269065 0 -0.167048 -0.242644 0 -0.263562 -0.227803 0 -0.403394 -0.255505 0 -0.540404 -0.279629 0 
                </DataArray>
            </Points>
            <Polys>
                <DataArray type="Int64" Name="connectivity" format="ascii">
0 1 2 3 4 5 6 7 8 9 10 11 12 13 14 15 16 17 18 19 20 21 22 23 24 25 26 27 28 29 30 31 32 33 34 35 36 37 38 39 40 41 42 43 44 45 46 47 48 49 50 51 52 53 54 55 56 57 58 59 60 61 62 63 64 65 66 67 68 69 70 71 72 73 74 75 76 77 78 79 80 81 82 83 84 85 86 87 88 89 90 91 92 93 94 95 96 97 98 99 100 101 102 103 104 105 106 107 108 109 110 111 112 113 114 115 116 117 118 119 120 121 122 123 124 125 126 127 128 129 130 131 132 133 134 135 136 137 138 139 140 141 142 143 144 
                </DataArray>
                <DataArray type="Int64" Name="offsets" format="ascii">
59 102 145 
                </DataArray>
            </Polys>
        </Piece>
    </PolyData>
</VTKFile>
