<VTKFile type="PolyData" version="0.1" byte_order="LittleEndian">
    <PolyData>
        <Piece NumberOfPoints="180" NumberOfPolys="4">
            <CellData>
                <DataArray type="Float64" Name="area" format="ascii">
1.7329 1.85124 1.94376 1.76231 
                </DataArray>
                <DataArray type="Float64" Name="c1" format="ascii">
0.0483813 0.028778 0.0338415 0.0370667 
                </DataArray>
                <DataArray type="Float64" Name="c2" format="ascii">
0.207645 0.258266 0.209814 0.249059 
                </DataArray>
                <DataArray type="Float64" Name="grad_c1" NumberOfComponents="2" format="ascii">
0.00166656 0.00406279 0.00541087 0.00618633 0.0017236 0.0114146 0.0111442 0.00322663 
                </DataArray>
                <DataArray type="Float64" Name="grad_c2" NumberOfComponents="2" format="ascii">
-0.0334879 -0.00206396 -0.0366649 0.00499227 -0.0312199 0.00162813 -0.0362216 -0.00480336 
                </DataArray>
                <DataArray type="Float64" Name="D1" format="ascii">
20.1884 47.8887 46.4257 29.5543 
                </DataArray>
                <DataArray type="Float64" Name="D2" format="ascii">
28.1376 29.476 55.2662 32.7903 
                </DataArray>
                <DataArray type="Float64" Name="k1" format="ascii">
0.910378 0.571072 1.14395 1.54432 
                </DataArray>
                <DataArray type="Float64" Name="k2" format="ascii">
0.1 0.1 0.1 0.1 
                </DataArray>
                <DataArray type="Float64" Name="k3" format="ascii">
1 1 1 1 
                </DataArray>
                <DataArray type="Int64" Name="cell_type" format="ascii">
0 1 1 1 
                </DataArray>
                <DataArray type="Float64" Name="perimeter" format="ascii">
4.78996 4.9548 5.06272 4.83656 
                </DataArray>
                <DataArray type="Float64" Name="neighbors" format="ascii">
2 2 2 2 
                </DataArray>
            </CellData>
            <Points>
                <DataArray type="Float64" Name="Points" NumberOfComponents="3" format="ascii">
-0.687243 1.32404 0 -0.819344 1.25429 0 -0.946795 1.1621 0 -0.952015 1.05223 0 -0.958958 0.944422 0 -0.967941 0.849013 0 -0.972243 0.756918 0 -0.98092 0.664819 0 -0.988058 0.586549 0 -0.993419 0.505837 0 -0.997117 0.427125 0 -1.00059 0.345202 0 -1.00396 0.254269 0 -1.00759 0.17671 0 -1.01176 0.0927998 0 -0.916665 0.0202233 0 -0.76326 -0.0205964 0 -0.639293 -0.0443594 0 -0.562985 -0.0550208 0 -0.485007 -0.0660576 0 -0.411826 -0.0695235 0 -0.343281 -0.0701405 0 -0.201425 -0.0813006 0 -0.127701 -0.0834974 0 -0.0367618 -0.0466918 0 0.0406383 0.00292813 0 0.104884 0.0526305 0 0.165777 0.102512 0 0.219706 0.164169 0 0.315021 0.291877 0 0.353572 0.384784 0 0.384211 0.488268 0 0.402692 0.590095 0 0.403043 0.687805 0 0.389511 0.790691 0 0.361765 0.882774 0 0.323299 0.969899 0 0.272403 1.0699 0 0.20844 1.15686 0 0.136562 1.23261 0 0.053572 1.29789 0 -0.041258 1.34222 0 -0.148478 1.37779 0 -0.25851 1.39167 0 -0.364054 1.39511 0 -0.468332 1.38726 0 -0.578677 1.36413 0 -1.45316 -1.37935 0 -1.36142 -1.31539 0 -1.27868 -1.23616 0 -1.20955 -1.1427 0 -1.21059 -1.04206 0 -1.20362 -0.941028 0 -1.19678 -0.839211 0 -1.18989 -0.741879 0 -1.18307 -0.644099 0 -1.17662 -0.547246 0 -1.17051 -0.440978 0 -1.16464 -0.338812 0 -1.156 -0.241075 0 -1.14673 -0.139572 0 -1.26564 -0.0606409 0 -1.41815 -0.0348987 0 -1.55729 -0.0286395 0 -1.73822 -0.0132561 0 -1.89201 0.00420049 0 -1.97649 0.0120307 0 -2.05406 -0.00077498 0 -2.21903 -0.0389545 0 -2.35937 -0.124159 0 -2.47982 -0.23872 0 -2.56361 -0.380907 0 -2.60131 -0.483917 0 -2.62816 -0.59053 0 -2.64024 -0.694777 0 -2.63484 -0.796371 0 -2.61644 -0.898514 0 -2.58911 -1.00077 0 -2.54925 -1.09964 0 -2.49139 -1.19107 0 -2.4178 -1.27487 0 -2.3349 -1.34965 0 -2.24551 -1.41013 0 -2.14825 -1.45328 0 -2.04267 -1.4783 0 -1.93279 -1.48793 0 -1.82623 -1.48627 0 -1.72626 -1.47577 0 -1.62997 -1.45528 0 -1.53781 -1.42263 0 -0.827149 -0.0180513 0 -0.983225 -0.0623314 0 -1.13245 -0.133846 0 -1.14453 -0.22711 0 -1.15251 -0.313124 0 -1.15843 -0.404968 0 -1.16384 -0.499581 0 -1.16921 -0.589046 0 -1.17543 -0.676847 0 -1.1814 -0.763264 0 -1.1881 -0.858282 0 -1.1947 -0.956494 0 -1.20063 -1.04989 0 -1.19836 -1.14661 0 -1.1379 -1.24789 0 -1.05949 -1.33498 0 -0.964663 -1.40827 0 -0.876715 -1.46184 0 -0.780852 -1.50634 0 -0.674576 -1.5374 0 -0.561273 -1.55592 0 -0.447857 -1.56293 0 -0.335952 -1.55382 0 -0.225243 -1.52657 0 -0.116008 -1.48202 0 -0.0124198 -1.42317 0 0.0788973 -1.35214 0 0.156832 -1.26775 0 0.225152 -1.17133 0 0.281752 -1.06776 0 0.318653 -0.961401 0 0.33484 -0.853309 0 0.336691 -0.743063 0 0.326936 -0.634 0 0.302759 -0.53163 0 0.234081 -0.387664 0 0.133098 -0.260986 0 0.00860544 -0.157097 0 -0.120693 -0.0937886 0 -0.218768 -0.0909893 0 -0.307951 -0.0826287 0 -0.469453 -0.0779806 0 -0.642699 -0.0539917 0 -1.38145 -0.0299293 0 -1.26955 -0.0469493 0 -1.13206 0.00955599 0 -1.02416 0.0922073 0 -1.01706 0.186991 0 -1.01306 0.279536 0 -1.00928 0.380359 0 -1.00512 0.472963 0 -0.999404 0.573443 0 -0.990806 0.666306 0 -0.98239 0.754971 0 -0.97724 0.862286 0 -0.967723 0.961744 0 -0.961592 1.05985 0 -0.959462 1.16465 0 -1.07 1.26449 0 -1.19654 1.34461 0 -1.29817 1.3951 0 -1.3945 1.43197 0 -1.49275 1.45308 0 -1.59646 1.46106 0 -1.70303 1.46046 0 -1.81296 1.44125 0 -1.91554 1.41294 0 -2.00945 1.36369 0 -2.09178 1.30327 0 -2.16583 1.23148 0 -2.22813 1.14477 0 -2.2782 1.06819 0 -2.32414 0.987412 0 -2.36033 0.897834 0 -2.38092 0.811936 0 -2.38491 0.712873 0 -2.37544 0.602785 0 -2.35538 0.503791 0 -2.31906 0.415126 0 -2.23767 0.277616 0 -2.19388 0.223039 0 -2.15664 0.166824 0 -2.04615 0.0662435 0 -1.9728 0.0227753 0 -1.89747 0.0147044 0 -1.75879 -0.000785047 0 -1.68701 -0.0077387 0 -1.61375 -0.0136005 0 -1.54991 -0.0189181 0 -1.4662 -0.0215638 0 
                </DataArray>
            </Points>
            <Polys>
                <DataArray type="Int64" Name="connectivity" format="ascii">
0 1 2 3 4 5 6 7 8 9 10 11 12 13 14 15 16 17 18 19 20 21 22 23 24 25 26 27 28 29 30 31 32 33 34 35 36 37 38 39 40 41 42 43 44 45 46 47 48 49 50 51 52 53 54 55 56 57 58 59 60 61 62 63 64 65 66 67 68 69 70 71 72 73 74 75 76 77 78 79 80 81 82 83 84 85 86 87 88 89 90 91 92 93 94 95 96 97 98 99 100 101 102 103 104 105 106 107 108 109 110 111 112 113 114 115 116 117 118 119 120 121 122 123 124 125 126 127 128 129 130 131 132 133 134 135 136 137 138 139 140 141 142 143 144 145 146 147 148 149 150 151 152 153 154 155 156 157 158 159 160 161 162 163 164 165 166 167 168 169 170 171 172 173 174 175 176 177 178 179 
                </DataArray>
                <DataArray type="Int64" Name="offsets" format="ascii">
47 90 133 180 
                </DataArray>
            </Polys>
        </Piece>
    </PolyData>
</VTKFile>
