<VTKFile type="PolyData" version="0.1" byte_order="LittleEndian">
    <PolyData>
        <Piece NumberOfPoints="2655" NumberOfPolys="61">
            <CellData>
                <DataArray type="Float64" Name="area" format="ascii">
3.2736 2.16639 2.32746 1.31298 3.04439 2.04907 3.36954 2.58196 2.25937 1.74917 1.59964 2.70667 3.22025 2.07317 2.3595 1.98149 1.79286 1.88313 1.58342 2.75158 2.28705 2.03998 1.81146 3.27859 1.99898 1.57374 3.0035 2.97381 1.89598 3.14621 2.87853 2.58225 2.8416 2.33847 1.92839 2.38559 2.85681 2.31999 2.99335 2.27018 1.62287 2.43863 2.07781 1.96171 2.55277 2.14697 1.40282 2.24929 2.04816 1.92757 2.14855 2.07876 1.78224 1.92849 1.89359 1.51536 1.79812 1.68543 1.8711 1.59599 1.17123 
                </DataArray>
                <DataArray type="Float64" Name="c1" format="ascii">
0.0577597 0.0141753 0.0170952 0.0190988 0.0193385 0.0108092 0.0239543 0.0366873 0.0113333 0.0212699 0.00869035 0.0143477 0.0114358 0.0245266 0.0359694 0.0230681 0.0118962 0.0267166 0.015791 0.026254 0.0091763 0.0114867 0.0162801 0.0188033 0.0157558 0.0130379 0.0393265 0.0400765 0.0125011 0.0158356 0.0178448 0.0198044 0.0140579 0.0362893 0.0260581 0.0124025 0.0105318 0.0287146 0.0292434 0.0132635 0.0397655 0.0429227 0.0282178 0.0418516 0.0100529 0.00963155 0.0097559 0.0339098 0.0181896 0.0123641 0.0207077 0.0142726 0.0387427 0.0130704 0.0267965 0.012337 0.0140917 0.0194333 0.0128124 0.0131954 0.0191905 
                </DataArray>
                <DataArray type="Float64" Name="c2" format="ascii">
0.506443 0.698327 0.543744 0.649382 0.713716 0.943402 0.487425 0.44312 0.914903 0.51425 0.751887 0.826238 0.585639 0.631737 0.468533 0.475748 0.877609 0.522606 0.663643 0.559227 0.861106 0.734255 0.751096 0.670685 0.595044 0.945924 0.420488 0.477475 0.746611 0.518431 0.732614 0.593964 0.782929 0.557281 0.610466 0.613787 0.83947 0.504368 0.443678 0.929459 0.430382 0.458846 0.479031 0.502398 0.733557 0.673845 0.949871 0.581546 0.620295 0.904076 0.549097 0.747029 0.522025 0.810473 0.572179 0.791842 0.664968 0.559541 0.655785 0.849577 0.68206 
                </DataArray>
                <DataArray type="Float64" Name="grad_c1" NumberOfComponents="2" format="ascii">
0.00174096 -0.000585493 0.00137569 0.00160075 0.00133553 0.00322353 0.00255967 -0.00361994 0.00370272 -0.000921317 -4.34763e-05 0.00070647 0.00116513 0.00459213 -0.00149447 -0.00346054 0.000240877 -0.000907676 0.000210406 -0.00398294 0.000261727 0.00103549 0.00155625 0.000182933 0.000603895 0.00178719 0.00607917 0.0011616 -0.000929012 0.00680762 -0.000171073 -0.00418871 0.000446108 0.000867935 0.000416911 -0.00691732 0.00167199 -0.00260343 0.00426962 0.00523079 0.000135341 0.000881398 0.000683274 0.0013276 0.00255642 -0.00171459 0.00310611 0.00198065 0.00164182 0.00259677 -0.00037953 0.000674912 0.0043015 -0.00613837 -0.00585046 -0.00929167 0.000985022 -0.00163511 0.000920428 0.00297218 0.00294415 0.000344042 0.00151435 -0.00401261 0.0012668 0.00108538 0.0101398 0.00675145 0.00546799 -0.00385048 0.000900285 0.00192283 0.000324863 0.000985264 0.00185299 0.0063243 2.76247e-05 -0.00489786 9.88688e-06 -0.000156979 0.00264991 -0.000818814 -0.00702285 0.00216926 -0.000748233 -0.00574089 0.00257934 0.0133705 0.00046688 0.00115624 0.000471752 0.00127638 -0.000134649 0.000770127 0.0116974 -0.00152056 0.00255503 0.00262487 0.00029953 -0.00059037 0.00224068 0.00393662 0.0015558 -0.00192941 0.00254779 -0.0142076 0.00142509 -0.00114433 0.00381672 -0.00648503 0.000697479 0.00110834 0.0010295 -0.00223267 0.000638505 -0.00360977 0.00105895 0.00180075 0.000978977 0.000582858 0.00304312 -0.00278828 
                </DataArray>
                <DataArray type="Float64" Name="grad_c2" NumberOfComponents="2" format="ascii">
-0.0297555 0.0038948 -0.0622666 -0.00514982 -0.0297192 -0.0128323 -0.0542874 0.0189749 -0.0670717 0.0135795 -0.0784767 -0.0157839 -0.0236673 -0.00774339 -0.0160977 0.00428219 -0.0791406 0.0135213 -0.0248264 0.0239061 -0.0605959 -0.020127 -0.0575765 0.00154848 -0.0385199 -0.0221612 -0.056814 0.00261002 -0.0202842 -0.00257866 -0.0197112 0.0164207 -0.069293 -0.00113088 -0.0304372 0.0185385 -0.047222 0.0215101 -0.0417664 -0.00126768 -0.0689607 -0.0243505 -0.0641449 -0.0200634 -0.0561381 0.00728665 -0.0629989 0.00179399 -0.0445474 -0.0100755 -0.115565 0.0147295 -0.0121956 0.00456051 -0.0232507 0.00701165 -0.0617546 0.0227112 -0.0281347 -0.0139045 -0.0679671 0.00521145 -0.0378535 0.0250487 -0.0679649 0.00378981 -0.0417233 0.00104527 -0.0639466 0.0142222 -0.0426307 -0.0233993 -0.0691353 -0.0184798 -0.0268685 -0.0054532 -0.0142838 0.0110783 -0.0921886 -0.00054068 -0.0141132 0.000181724 -0.019739 0.00041594 -0.0207511 0.0148216 -0.0289155 -0.000195221 -0.0606402 -0.0280045 -0.0488689 -0.0240829 -0.0717635 -0.0220611 -0.0472703 0.00386894 -0.0519235 -0.00308958 -0.0908393 0.0188667 -0.0341121 -0.00670288 -0.057497 0.0183496 -0.0289327 0.00899148 -0.0558262 0.0173485 -0.0409693 0.0240277 -0.0759017 -0.00800997 -0.0441275 0.0255567 -0.0338106 0.0288983 -0.0555149 -0.0174364 -0.050445 -0.00309375 -0.0656671 0.0169814 
                </DataArray>
                <DataArray type="Float64" Name="D1" format="ascii">
20.1884 47.8887 46.4257 29.5543 23.66 26.9155 31.6639 27.4076 30.8932 41.7876 28.6995 27.0936 25.8601 46.5973 31.4408 35.0437 37.913 16.8386 22.4411 28.3868 31.9534 36.3592 34.0147 20.1184 48.0826 38.3651 47.2917 29.8961 38.9749 43.0421 26.8686 32.3324 29.6121 52.4272 42.8323 25.5713 28.1693 45.098 44.1968 28.4491 30.3703 41.505 32.6894 22.6517 35.3618 31.9818 24.0428 32.7424 26.7175 29.508 44.3121 28.2242 27.8128 26.5813 30.8246 46.914 48.7844 41.4616 31.3182 28.2595 20.2364 
                </DataArray>
                <DataArray type="Float64" Name="D2" format="ascii">
28.1376 29.476 55.2662 32.7903 26.1502 20.7843 31.7025 33.9204 29.999 25.2094 41.1061 34.7848 33.2469 38.6467 34.7848 56.3213 22.3241 25.0052 21.7317 17.7694 45.6173 35.0981 35.203 30.2212 14.9015 18.5881 34.7508 28.0313 24.2088 26.0686 28.7328 30.8758 30.5008 53.0714 18.1999 22.0737 37.4859 35.7535 23.7409 30.8278 21.4514 27.9131 23.3293 14.4624 29.8897 37.7594 29.304 28.5592 39.9196 26.3448 27.5206 49.805 30.1134 19.3908 37.1173 27.7042 52.5175 26.5361 31.9319 30.1957 27.006 
                </DataArray>
                <DataArray type="Float64" Name="k1" format="ascii">
0.910378 0.571072 1.14395 1.54432 0.926629 1.25016 0.575564 1.55852 0.945503 0.860941 0.791226 0.616893 1.05281 1.17647 0.817944 0.63907 0.482176 1.56031 0.91796 0.830993 0.79104 0.957837 0.807719 1.03161 1.08356 0.877557 1.01713 0.934678 0.868774 1.64607 0.737187 1.13232 0.856645 1.08628 0.597704 0.754089 0.758816 0.893221 0.690579 1.14494 1.4856 0.921894 1.55448 1.14625 1.25886 1.23837 0.981043 1.37766 1.11592 1.33894 0.934055 1.04397 0.879296 1.21283 1.39915 0.756872 0.755242 0.89103 1.19026 0.871086 0.529083 
                </DataArray>
                <DataArray type="Float64" Name="k2" format="ascii">
0.1 0.1 0.1 0.1 0.1 0.1 0.1 0.1 0.1 0.1 0.1 0.1 0.1 0.1 0.1 0.1 0.1 0.1 0.1 0.1 0.1 0.1 0.1 0.1 0.1 0.1 0.1 0.1 0.1 0.1 0.1 0.1 0.1 0.1 0.1 0.1 0.1 0.1 0.1 0.1 0.1 0.1 0.1 0.1 0.1 0.1 0.1 0.1 0.1 0.1 0.1 0.1 0.1 0.1 0.1 0.1 0.1 0.1 0.1 0.1 0.1 
                </DataArray>
                <DataArray type="Float64" Name="k3" format="ascii">
1 1 1 1 1 1 1 1 1 1 1 1 1 1 1 1 1 1 1 1 1 1 1 1 1 1 1 1 1 1 1 1 1 1 1 1 1 1 1 1 1 1 1 1 1 1 1 1 1 1 1 1 1 1 1 1 1 1 1 1 1 
                </DataArray>
                <DataArray type="Int64" Name="cell_type" format="ascii">
0 1 1 1 1 1 1 1 1 1 2 1 1 1 1 1 1 1 1 1 2 1 1 1 1 1 1 1 1 1 1 1 1 1 1 1 1 1 1 1 1 1 1 1 1 2 2 1 1 1 1 1 1 1 1 1 1 1 1 1 1 
                </DataArray>
                <DataArray type="Float64" Name="perimeter" format="ascii">
6.75204 5.43467 5.65089 4.33296 6.46297 5.21534 6.84849 5.8888 5.40536 4.85729 4.60733 6.09749 6.50456 5.31492 5.65409 5.15623 4.9533 5.09981 4.62469 6.14793 5.57676 5.31767 5.0567 6.71114 5.25621 4.63021 6.27021 6.36784 5.01984 6.4923 6.28303 5.98088 6.21321 5.56656 5.20327 5.69257 6.29638 5.62263 6.33289 5.57612 4.72222 5.76625 5.33317 5.12329 5.94713 5.30643 4.31176 5.65262 5.28265 4.99911 5.58841 5.29122 4.91871 5.11232 5.06646 4.53461 4.89782 4.74991 5.17765 4.79007 4.1323 
                </DataArray>
                <DataArray type="Float64" Name="neighbors" format="ascii">
6 6 5 6 6 3 5 5 2 4 2 3 3 5 4 3 5 6 5 6 3 5 4 6 5 2 3 6 3 3 4 6 5 5 5 6 6 5 4 2 3 5 5 5 6 4 3 5 5 2 6 6 4 4 4 5 3 3 5 4 5 
                </DataArray>
            </CellData>
            <Points>
                <DataArray type="Float64" Name="Points" NumberOfComponents="3" format="ascii">
-7.75403 1.87221 0 -7.77154 1.75683 0 -7.79052 1.64158 0 -7.72481 1.49562 0 -7.58897 1.38596 0 -7.45819 1.27094 0 -7.33246 1.15231 0 -7.21312 1.02879 0 -7.05763 0.938894 0 -6.89138 0.872005 0 -6.72448 0.855938 0 -6.55768 0.829972 0 -6.39163 0.796181 0 -6.22705 0.75505 0 -6.0644 0.706926 0 -5.94462 0.752716 0 -5.83183 0.816544 0 -5.76609 0.86478 0 -5.70481 0.919236 0 -5.667 1.09582 0 -5.62678 1.27195 0 -5.5844 1.44777 0 -5.53988 1.62294 0 -5.49345 1.79684 0 -5.58909 1.8845 0 -5.68273 1.97444 0 -5.77437 2.06634 0 -5.8634 2.16031 0 -5.94741 2.25811 0 -6.02982 2.35742 0 -6.13801 2.49587 0 -6.24014 2.63715 0 -6.37655 2.6752 0 -6.53276 2.64435 0 -6.6898 2.62011 0 -6.84588 2.60373 0 -7.00166 2.59677 0 -7.15608 2.59974 0 -7.30702 2.61364 0 -7.43195 2.53548 0 -7.508 2.4767 0 -7.58044 2.41129 0 -7.64828 2.33973 0 -7.70986 2.26274 0 -7.72127 2.13253 0 -7.73409 2.00197 0 -10.1496 -3.04566 0 -10.0636 -2.98722 0 -10.002 -2.87612 0 -9.95787 -2.75721 0 -9.93119 -2.63278 0 -9.99252 -2.52919 0 -10.0524 -2.42375 0 -10.1103 -2.31796 0 -10.1663 -2.21127 0 -10.2175 -2.10232 0 -10.2667 -1.99277 0 -10.3143 -1.88225 0 -10.3598 -1.7713 0 -10.4349 -1.68008 0 -10.5232 -1.60147 0 -10.6246 -1.57752 0 -10.726 -1.55529 0 -10.8769 -1.52515 0 -11.0354 -1.56991 0 -11.1231 -1.69575 0 -11.2105 -1.82065 0 -11.2716 -1.90745 0 -11.333 -1.99439 0 -11.3948 -2.08134 0 -11.4566 -2.16805 0 -11.5188 -2.25489 0 -11.5806 -2.34303 0 -11.5931 -2.47716 0 -11.5506 -2.60248 0 -11.5123 -2.73022 0 -11.48 -2.86106 0 -11.4518 -2.99329 0 -11.4258 -3.12739 0 -11.3464 -3.21437 0 -11.253 -3.28795 0 -11.147 -3.31213 0 -11.0412 -3.33627 0 -10.9036 -3.36972 0 -10.7651 -3.40459 0 -10.6013 -3.38842 0 -10.4903 -3.29869 0 -10.3784 -3.21141 0 -10.265 -3.12632 0 -6.63598 -2.79624 0 -6.74959 -2.7694 0 -6.86592 -2.76327 0 -6.96145 -2.81153 0 -7.0577 -2.86104 0 -7.15436 -2.90991 0 -7.25074 -2.95882 0 -7.34771 -3.00784 0 -7.44419 -3.05618 0 -7.54069 -3.10426 0 -7.63745 -3.15263 0 -7.73469 -3.20158 0 -7.83185 -3.25013 0 -7.92946 -3.30055 0 -8.01354 -3.42178 0 -8.05244 -3.57457 0 -8.09387 -3.72585 0 -8.12178 -3.82185 0 -8.14961 -3.91782 0 -8.12562 -4.01676 0 -8.09111 -4.11217 0 -8.02568 -4.18362 0 -7.95914 -4.25362 0 -7.89153 -4.32381 0 -7.82154 -4.39081 0 -7.75125 -4.45732 0 -7.67962 -4.52229 0 -7.57719 -4.55326 0 -7.47204 -4.57247 0 -7.36564 -4.57872 0 -7.25911 -4.57304 0 -7.15394 -4.55512 0 -7.0514 -4.52535 0 -6.90703 -4.38908 0 -6.77107 -4.24836 0 -6.64097 -4.10264 0 -6.51595 -3.95272 0 -6.39563 -3.79566 0 -6.28269 -3.6312 0 -6.25255 -3.52852 0 -6.23921 -3.42218 0 -6.3151 -3.27546 0 -6.37167 -3.17294 0 -6.4342 -3.07479 0 -6.49919 -2.98013 0 -6.56656 -2.88712 0 -9.85125 5.13362 0 -9.88714 5.05795 0 -9.86577 4.97855 0 -9.82993 4.90093 0 -9.77644 4.83845 0 -9.71524 4.77996 0 -9.66706 4.71403 0 -9.61691 4.63029 0 -9.57271 4.55065 0 -9.52148 4.48476 0 -9.4888 4.4255 0 -9.44136 4.35191 0 -9.37483 4.31949 0 -9.29787 4.25439 0 -9.19516 4.22007 0 -9.08395 4.21157 0 -9.00045 4.21099 0 -8.91022 4.23954 0 -8.8412 4.29057 0 -8.74892 4.42787 0 -8.64534 4.56338 0 -8.54673 4.69007 0 -8.45179 4.81284 0 -8.44994 4.96327 0 -8.49553 5.11889 0 -8.58331 5.27199 0 -8.67843 5.32049 0 -8.77575 5.35587 0 -8.87375 5.37095 0 -8.97172 5.38736 0 -9.07004 5.40603 0 -9.16789 5.4272 0 -9.26447 5.4512 0 -9.35844 5.47649 0 -9.4481 5.50034 0 -9.53114 5.522 0 -9.60812 5.54202 0 -9.69057 5.56123 0 -9.75429 5.41353 0 -9.79395 5.27567 0 -11.8285 2.53459 0 -11.8131 2.4036 0 -11.7808 2.2749 0 -11.7323 2.15053 0 -11.6093 2.1228 0 -11.4868 2.09122 0 -11.3645 2.05656 0 -11.2423 2.01898 0 -11.1209 1.97865 0 -11.0004 1.93565 0 -10.8807 1.88997 0 -10.7622 1.84169 0 -10.6452 1.79072 0 -10.5296 1.7373 0 -10.3884 1.74998 0 -10.2506 1.78172 0 -10.1209 1.8652 0 -10.0288 1.92384 0 -9.9356 1.98107 0 -9.85903 2.07447 0 -9.78948 2.17498 0 -9.72633 2.28324 0 -9.68404 2.39903 0 -9.64045 2.51635 0 -9.59546 2.63436 0 -9.65773 2.78834 0 -9.71413 2.94287 0 -9.762 3.094 0 -9.8117 3.24317 0 -9.90983 3.36748 0 -10.0314 3.43049 0 -10.177 3.52049 0 -10.3193 3.61858 0 -10.401 3.59208 0 -10.4853 3.56127 0 -10.5738 3.53103 0 -10.6646 3.50289 0 -10.7568 3.47925 0 -10.8502 3.45697 0 -10.9446 3.43595 0 -11.0397 3.41645 0 -11.1359 3.40331 0 -11.2323 3.3917 0 -11.3292 3.38133 0 -11.4267 3.3712 0 -11.5162 3.29773 0 -11.5967 3.21385 0 -11.6748 3.10869 0 -11.7385 2.99401 0 -11.7861 2.87185 0 -11.8166 2.74379 0 -11.8282 2.63956 0 -14.8084 -4.34989 0 -14.7256 -4.43085 0 -14.6315 -4.49973 0 -14.5291 -4.55534 0 -14.4196 -4.59505 0 -14.3264 -4.56096 0 -14.2322 -4.52706 0 -14.1374 -4.49418 0 -14.0424 -4.46175 0 -13.9473 -4.42993 0 -13.8517 -4.39984 0 -13.7562 -4.3704 0 -13.6611 -4.34123 0 -13.5864 -4.24508 0 -13.5557 -4.12058 0 -13.5228 -3.99629 0 -13.4891 -3.87253 0 -13.4396 -3.69535 0 -13.4673 -3.50451 0 -13.5945 -3.38163 0 -13.7209 -3.25861 0 -13.8266 -3.15423 0 -13.931 -3.04804 0 -14.0308 -2.93589 0 -14.1281 -2.81923 0 -14.2789 -2.82303 0 -14.4226 -2.84808 0 -14.5561 -2.89672 0 -14.6767 -2.96742 0 -14.7836 -3.05677 0 -14.8722 -3.16332 0 -14.9382 -3.28369 0 -14.9811 -3.41333 0 -14.9999 -3.54917 0 -15.001 -3.68715 0 -14.9982 -3.82494 0 -14.9893 -3.96245 0 -14.9555 -4.09613 0 -14.8984 -4.22184 0 -5.29214 -1.41163 0 -5.41755 -1.39358 0 -5.52925 -1.46198 0 -5.63208 -1.54321 0 -5.71368 -1.65428 0 -5.80203 -1.76135 0 -5.89699 -1.86373 0 -5.99767 -1.96062 0 -6.10378 -2.05164 0 -6.21503 -2.13628 0 -6.33126 -2.21466 0 -6.45205 -2.28635 0 -6.57712 -2.35075 0 -6.70514 -2.40912 0 -6.6767 -2.60114 0 -6.62717 -2.78883 0 -6.51852 -2.93524 0 -6.43834 -3.04995 0 -6.36328 -3.16752 0 -6.29623 -3.28925 0 -6.23102 -3.41374 0 -6.12621 -3.50245 0 -6.0293 -3.5181 0 -5.93404 -3.53345 0 -5.83892 -3.55034 0 -5.7438 -3.56743 0 -5.64888 -3.58503 0 -5.55458 -3.60472 0 -5.46047 -3.6246 0 -5.36601 -3.64328 0 -5.26276 -3.60147 0 -5.16331 -3.55104 0 -5.06917 -3.49252 0 -4.98047 -3.42624 0 -4.89766 -3.35266 0 -4.82141 -3.27229 0 -4.75224 -3.18573 0 -4.6909 -3.09376 0 -4.63795 -2.99708 0 -4.59358 -2.89627 0 -4.55798 -2.79196 0 -4.5314 -2.68494 0 -4.51417 -2.57624 0 -4.50655 -2.46705 0 -4.50837 -2.35826 0 -4.51951 -2.25041 0 -4.53991 -2.14405 0 -4.56941 -2.03984 0 -4.60791 -1.93846 0 -4.65514 -1.84076 0 -4.74693 -1.69551 0 -4.85778 -1.56487 0 -4.98506 -1.45101 0 -5.13884 -1.43223 0 -4.07887 1.39951 0 -3.99796 1.33626 0 -3.91552 1.27473 0 -3.8229 1.31672 0 -3.73082 1.35986 0 -3.63919 1.40427 0 -3.54808 1.44995 0 -3.45737 1.49688 0 -3.36709 1.54518 0 -3.2771 1.59489 0 -3.18751 1.64595 0 -3.09845 1.69851 0 -3.00995 1.75247 0 -2.92173 1.80788 0 -2.84984 1.92375 0 -2.8009 2.05122 0 -2.80068 2.1835 0 -2.80074 2.35124 0 -2.80579 2.52066 0 -2.81946 2.69084 0 -2.86755 2.77871 0 -2.92556 2.86108 0 -3.06465 2.94806 0 -3.15609 3.0014 0 -3.24732 3.05275 0 -3.33885 3.10035 0 -3.43127 3.14751 0 -3.52592 3.18856 0 -3.62074 3.22885 0 -3.7167 3.26484 0 -3.81333 3.29853 0 -3.94053 3.25318 0 -4.05911 3.18792 0 -4.16494 3.10442 0 -4.25584 3.00474 0 -4.30275 2.8915 0 -4.34856 2.77735 0 -4.40549 2.63376 0 -4.46158 2.48981 0 -4.51659 2.34541 0 -4.57046 2.20067 0 -4.62265 2.05508 0 -4.61296 1.89578 0 -4.54076 1.81959 0 -4.46756 1.74303 0 -4.39296 1.66762 0 -4.31315 1.59663 0 -4.19696 1.4965 0 -14.1868 5.55268 0 -14.1551 5.41283 0 -14.1013 5.28003 0 -14.0267 5.15754 0 -13.9334 5.04847 0 -13.8353 5.0351 0 -13.7369 5.02395 0 -13.6384 5.01279 0 -13.5399 5.00166 0 -13.4417 4.9908 0 -13.3435 4.98019 0 -13.2454 4.96957 0 -13.1475 4.95887 0 -13.0493 4.94891 0 -12.9387 4.98268 0 -12.8348 5.03411 0 -12.7689 5.12451 0 -12.679 5.2477 0 -12.5887 5.37147 0 -12.4984 5.49522 0 -12.4087 5.61876 0 -12.408 5.71744 0 -12.4179 5.81522 0 -12.4385 5.91125 0 -12.4695 6.00438 0 -12.5102 6.09341 0 -12.5607 6.17722 0 -12.6354 6.27227 0 -12.7218 6.35657 0 -12.8193 6.42863 0 -12.9254 6.48716 0 -13.0895 6.54478 0 -13.2619 6.56952 0 -13.4362 6.56062 0 -13.605 6.51777 0 -13.7623 6.44275 0 -13.9017 6.33867 0 -14.0184 6.2101 0 -14.1086 6.06119 0 -14.1681 5.8977 0 -14.1945 5.72605 0 -5.14995 6.43455 0 -5.28226 6.41374 0 -5.40809 6.37225 0 -5.52484 6.31313 0 -5.55954 6.21747 0 -5.59306 6.12209 0 -5.62741 6.0265 0 -5.66229 5.93185 0 -5.69802 5.83748 0 -5.73373 5.74335 0 -5.77014 5.6502 0 -5.80611 5.55839 0 -5.84256 5.46481 0 -5.8787 5.37193 0 -5.85019 5.2601 0 -5.78015 5.18992 0 -5.70979 5.1217 0 -5.6461 5.05925 0 -5.5806 4.997 0 -5.51479 4.93732 0 -5.37903 4.91057 0 -5.26172 4.93655 0 -5.14387 4.96327 0 -5.02622 4.98967 0 -4.90832 5.01421 0 -4.78997 5.03733 0 -4.67157 5.05889 0 -4.57104 5.12332 0 -4.50889 5.29105 0 -4.47218 5.39242 0 -4.43633 5.495 0 -4.4015 5.59722 0 -4.36724 5.70054 0 -4.33392 5.80414 0 -4.30375 5.90784 0 -4.37115 6.03872 0 -4.46032 6.15574 0 -4.53906 6.2323 0 -4.62795 6.29901 0 -4.72403 6.35208 0 -4.82551 6.39405 0 -4.93194 6.42202 0 -5.04061 6.43515 0 -9.79133 -7.50438 0 -9.7045 -7.43107 0 -9.62901 -7.34598 0 -9.5667 -7.25091 0 -9.58786 -7.16469 0 -9.61047 -7.07863 0 -9.63336 -6.99261 0 -9.65662 -6.90705 0 -9.68033 -6.82206 0 -9.70462 -6.73737 0 -9.72955 -6.65281 0 -9.75503 -6.56863 0 -9.78101 -6.48501 0 -9.80743 -6.40189 0 -9.83442 -6.31993 0 -9.91004 -6.27277 0 -9.99104 -6.23836 0 -10.1218 -6.25461 0 -10.2508 -6.27539 0 -10.3791 -6.29895 0 -10.507 -6.32509 0 -10.6348 -6.35381 0 -10.7622 -6.38519 0 -10.8883 -6.42087 0 -10.9653 -6.54885 0 -11.0156 -6.69 0 -11.0375 -6.83889 0 -11.0346 -6.95197 0 -11.0149 -7.06384 0 -10.9787 -7.17163 0 -10.9269 -7.27286 0 -10.8605 -7.36575 0 -10.7808 -7.44854 0 -10.7214 -7.49693 0 -10.6576 -7.53962 0 -10.5194 -7.6058 0 -10.3711 -7.64418 0 -10.2185 -7.6527 0 -10.0674 -7.63143 0 -9.92318 -7.58149 0 -12.6536 1.75553 0 -12.7703 1.76382 0 -12.8686 1.75692 0 -12.9677 1.74782 0 -13.0651 1.72758 0 -13.1604 1.69906 0 -13.2534 1.66359 0 -13.3419 1.61875 0 -13.3816 1.5161 0 -13.4162 1.41038 0 -13.4502 1.30167 0 -13.4843 1.19067 0 -13.5185 1.07859 0 -13.5521 0.967709 0 -13.5865 0.852809 0 -13.6246 0.723892 0 -13.6603 0.597635 0 -13.6867 0.473548 0 -13.7122 0.317975 0 -13.6509 0.175473 0 -13.5615 0.0532588 0 -13.5047 -0.00352403 0 -13.4338 -0.0659941 0 -13.2718 -0.101559 0 -13.1103 -0.142919 0 -12.9597 -0.174356 0 -12.8033 -0.213803 0 -12.6158 -0.241309 0 -12.53 -0.201871 0 -12.4406 -0.153366 0 -12.3474 -0.100573 0 -12.2551 -0.0530533 0 -12.1646 -0.00573234 0 -12.0774 0.0535078 0 -11.9755 0.150298 0 -11.8905 0.265472 0 -11.9196 0.378862 0 -11.9515 0.494252 0 -11.9842 0.610824 0 -12.0178 0.728166 0 -12.0583 0.863411 0 -12.1001 0.999349 0 -12.1424 1.13493 0 -12.1848 1.2691 0 -12.2272 1.40199 0 -12.2701 1.53456 0 -12.3169 1.66473 0 -12.4259 1.70816 0 -12.5385 1.73697 0 -6.23145 -6.1422 0 -6.19946 -5.98716 0 -6.18974 -5.82979 0 -6.20254 -5.6733 0 -6.29419 -5.59517 0 -6.38652 -5.51824 0 -6.47857 -5.44167 0 -6.57067 -5.36495 0 -6.66319 -5.28851 0 -6.75603 -5.2122 0 -6.84866 -5.13662 0 -6.9414 -5.06128 0 -7.03529 -4.98626 0 -7.19343 -4.96219 0 -7.35345 -4.9603 0 -7.51208 -4.98134 0 -7.66612 -5.02487 0 -7.74067 -5.09913 0 -7.81502 -5.17443 0 -7.8897 -5.25003 0 -7.96431 -5.32569 0 -8.03897 -5.40152 0 -8.11364 -5.47713 0 -8.1892 -5.55247 0 -8.26494 -5.62757 0 -8.34141 -5.70274 0 -8.41796 -5.77761 0 -8.4372 -5.89126 0 -8.38818 -6.00113 0 -8.34021 -6.11171 0 -8.29362 -6.22322 0 -8.2485 -6.33566 0 -8.20497 -6.44889 0 -8.17006 -6.54489 0 -8.09704 -6.62378 0 -8.01659 -6.69563 0 -7.92971 -6.75956 0 -7.83732 -6.81489 0 -7.74007 -6.86106 0 -7.63885 -6.8976 0 -7.53471 -6.92433 0 -7.42859 -6.94149 0 -7.32137 -6.94891 0 -7.21398 -6.946 0 -7.10747 -6.93267 0 -6.93562 -6.88822 0 -6.77359 -6.81706 0 -6.62436 -6.72108 0 -6.49234 -6.60196 0 -6.38096 -6.46327 0 -6.29311 -6.30849 0 -8.93715 0.898861 0 -8.90268 1.0153 0 -8.9236 1.11978 0 -8.95856 1.22084 0 -9.03843 1.29202 0 -9.11728 1.36354 0 -9.1958 1.4362 0 -9.27359 1.50994 0 -9.3506 1.58443 0 -9.42655 1.65987 0 -9.5017 1.73599 0 -9.57566 1.81269 0 -9.6484 1.88988 0 -9.72117 1.96828 0 -9.82688 1.97577 0 -9.93331 1.96975 0 -10.0208 1.91707 0 -10.1362 1.84359 0 -10.2519 1.76905 0 -10.3445 1.62959 0 -10.4094 1.4754 0 -10.4185 1.29242 0 -10.427 1.11005 0 -10.4361 0.928291 0 -10.4452 0.747057 0 -10.4543 0.566894 0 -10.3554 0.428898 0 -10.2263 0.371005 0 -10.0946 0.318254 0 -9.9426 0.261817 0 -9.78983 0.210969 0 -9.66699 0.172503 0 -9.54375 0.137044 0 -9.40287 0.187607 0 -9.27239 0.261462 0 -9.1562 0.357292 0 -9.05774 0.472122 0 -9.01882 0.614778 0 -8.97856 0.756911 0 -4.33127 -0.308998 0 -4.35831 -0.172169 0 -4.4028 -0.0402845 0 -4.46395 0.0843896 0 -4.5675 0.122427 0 -4.67123 0.160587 0 -4.77499 0.199311 0 -4.87875 0.238477 0 -4.98252 0.278042 0 -5.08632 0.317999 0 -5.18984 0.358399 0 -5.29298 0.399238 0 -5.39591 0.440592 0 -5.49851 0.482674 0 -5.60713 0.44091 0 -5.70938 0.38541 0 -5.80313 0.318601 0 -5.81992 0.223659 0 -5.8558 0.038263 0 -5.90151 -0.143531 0 -5.95835 -0.320379 0 -6.02509 -0.491995 0 -6.0064 -0.593235 0 -5.94659 -0.672228 0 -5.88564 -0.750744 0 -5.82981 -0.834122 0 -5.76786 -0.926766 0 -5.71061 -1.0241 0 -5.65331 -1.12148 0 -5.59705 -1.21958 0 -5.51365 -1.30475 0 -5.42237 -1.3813 0 -5.33413 -1.39554 0 -5.24563 -1.40784 0 -5.15717 -1.41973 0 -5.0688 -1.43075 0 -4.9805 -1.43992 0 -4.88386 -1.3939 0 -4.79247 -1.33863 0 -4.70718 -1.2746 0 -4.62876 -1.20243 0 -4.55796 -1.12273 0 -4.4955 -1.03628 0 -4.44201 -0.944072 0 -4.38815 -0.821207 0 -4.34997 -0.692517 0 -4.32853 -0.565768 0 -4.32223 -0.437386 0 -3.99255 4.53708 0 -3.90118 4.44288 0 -3.78817 4.40788 0 -3.70205 4.44796 0 -3.61634 4.49065 0 -3.53061 4.53422 0 -3.44474 4.57878 0 -3.35852 4.62462 0 -3.27361 4.67198 0 -3.18967 4.72103 0 -3.10643 4.77111 0 -3.02373 4.82208 0 -2.9416 4.87368 0 -2.86124 4.92796 0 -2.84422 5.06933 0 -2.84869 5.21222 0 -2.87466 5.35338 0 -2.94522 5.53651 0 -2.99413 5.62141 0 -3.05269 5.70059 0 -3.11851 5.77449 0 -3.19201 5.83951 0 -3.27073 5.89798 0 -3.35725 5.94621 0 -3.54171 6.01706 0 -3.63837 6.03773 0 -3.73622 6.04813 0 -3.83401 6.04926 0 -3.93098 6.03894 0 -4.02623 6.01878 0 -4.11919 5.98936 0 -4.20883 5.94972 0 -4.29304 5.90129 0 -4.32407 5.80225 0 -4.35578 5.70353 0 -4.38818 5.60558 0 -4.42107 5.5087 0 -4.45497 5.411 0 -4.4897 5.31437 0 -4.52492 5.21911 0 -4.55851 5.1242 0 -4.51853 5.02202 0 -4.42766 4.94407 0 -4.33832 4.86499 0 -4.25008 4.78545 0 -4.16303 4.705 0 -4.07682 4.62222 0 -13.2864 -3.5062 0 -13.1851 -3.45817 0 -13.0849 -3.40958 0 -13.0058 -3.32996 0 -12.9398 -3.23934 0 -12.9243 -3.14637 0 -12.9096 -3.05411 0 -12.8897 -2.96161 0 -12.8699 -2.87027 0 -12.8474 -2.77844 0 -12.8233 -2.68801 0 -12.7997 -2.59969 0 -12.7719 -2.51529 0 -12.746 -2.43249 0 -12.7753 -2.34005 0 -12.8145 -2.24873 0 -12.8614 -2.17904 0 -12.9314 -2.07572 0 -13.0009 -1.97475 0 -13.0735 -1.87339 0 -13.1478 -1.77305 0 -13.2784 -1.69783 0 -13.4475 -1.70079 0 -13.6149 -1.70313 0 -13.7278 -1.78857 0 -13.8325 -1.88695 0 -13.9282 -2.00997 0 -14.013 -2.15342 0 -14.0686 -2.29825 0 -14.1043 -2.45498 0 -14.126 -2.62877 0 -14.1271 -2.80083 0 -14.0093 -2.94523 0 -13.9215 -3.04361 0 -13.8295 -3.13721 0 -13.7364 -3.2293 0 -13.6429 -3.32072 0 -13.5499 -3.41097 0 -13.4562 -3.4989 0 -7.16782 4.60961 0 -7.13315 4.47365 0 -7.07861 4.34463 0 -7.00579 4.22421 0 -6.91274 4.1786 0 -6.81984 4.13312 0 -6.72854 4.0851 0 -6.63783 4.03409 0 -6.54798 3.98013 0 -6.45997 3.92438 0 -6.374 3.86649 0 -6.2896 3.80624 0 -6.20774 3.74386 0 -6.12791 3.67929 0 -6.01712 3.67884 0 -5.92602 3.74436 0 -5.8346 3.80963 0 -5.72717 3.88604 0 -5.63476 4.02526 0 -5.61562 4.17697 0 -5.5931 4.32821 0 -5.5659 4.4793 0 -5.53406 4.62916 0 -5.49837 4.77867 0 -5.52876 4.93392 0 -5.65916 5.05812 0 -5.75702 5.15337 0 -5.85486 5.24944 0 -5.98501 5.30142 0 -6.11128 5.29861 0 -6.23885 5.29801 0 -6.36522 5.29856 0 -6.48951 5.29967 0 -6.61464 5.26011 0 -6.73002 5.13217 0 -6.84186 5.00298 0 -6.95238 4.87465 0 -7.06083 4.74371 0 -8.28075 6.09813 0 -8.27911 6.19773 0 -8.29782 6.29576 0 -8.36652 6.34529 0 -8.43825 6.39394 0 -8.51014 6.43996 0 -8.58333 6.48423 0 -8.65809 6.52702 0 -8.73285 6.56772 0 -8.80988 6.60796 0 -8.88625 6.6465 0 -8.96417 6.68409 0 -9.04361 6.7198 0 -9.12549 6.75286 0 -9.21835 6.74976 0 -9.30968 6.72957 0 -9.39616 6.69334 0 -9.49009 6.58793 0 -9.5818 6.47886 0 -9.67046 6.36502 0 -9.75721 6.24753 0 -9.83882 6.12677 0 -9.85492 5.95234 0 -9.7791 5.76988 0 -9.73694 5.67189 0 -9.69317 5.5746 0 -9.56381 5.54074 0 -9.47731 5.51834 0 -9.38443 5.49379 0 -9.28679 5.46749 0 -9.1852 5.44167 0 -9.08294 5.41893 0 -8.98084 5.39917 0 -8.87902 5.38187 0 -8.77803 5.36635 0 -8.67841 5.38124 0 -8.58165 5.41513 0 -8.49089 5.57525 0 -8.43945 5.67511 0 -8.39317 5.77679 0 -8.35176 5.881 0 -8.31374 5.98836 0 -7.45558 -1.70965 0 -7.35882 -1.54998 0 -7.32513 -1.3733 0 -7.29072 -1.1976 0 -7.25345 -1.0221 0 -7.21347 -0.84727 0 -7.17329 -0.671996 0 -7.23836 -0.544402 0 -7.35409 -0.425208 0 -7.4698 -0.3061 0 -7.61596 -0.22309 0 -7.78138 -0.166687 0 -7.95393 -0.155339 0 -8.12662 -0.142556 0 -8.2992 -0.129355 0 -8.47162 -0.115631 0 -8.64405 -0.100509 0 -8.77241 -0.135704 0 -8.89409 -0.18884 0 -9.00655 -0.25908 0 -9.10735 -0.345056 0 -9.19407 -0.444737 0 -9.21757 -0.555988 0 -9.23777 -0.668197 0 -9.25581 -0.780887 0 -9.2775 -0.968637 0 -9.20769 -1.04537 0 -9.13722 -1.12144 0 -9.06784 -1.19867 0 -8.99827 -1.27609 0 -8.9294 -1.35466 0 -8.86122 -1.43401 0 -8.79365 -1.51411 0 -8.72674 -1.59492 0 -8.66075 -1.6769 0 -8.59604 -1.76001 0 -8.45479 -1.75374 0 -8.31283 -1.74599 0 -8.17083 -1.73864 0 -8.02876 -1.73173 0 -7.88584 -1.72515 0 -7.74234 -1.71896 0 -7.59886 -1.71331 0 -11.471 -5.78599 0 -11.4903 -5.67294 0 -11.5119 -5.54793 0 -11.5364 -5.42376 0 -11.6595 -5.29895 0 -11.8002 -5.19517 0 -11.9321 -5.20284 0 -12.0647 -5.21016 0 -12.1977 -5.21633 0 -12.33 -5.21762 0 -12.462 -5.21702 0 -12.594 -5.21476 0 -12.7256 -5.20757 0 -12.857 -5.19858 0 -12.988 -5.18939 0 -13.0952 -5.21401 0 -13.196 -5.26354 0 -13.2435 -5.37498 0 -13.3069 -5.51966 0 -13.3723 -5.66272 0 -13.3604 -5.76551 0 -13.3381 -5.86653 0 -13.3059 -5.9648 0 -13.264 -6.05934 0 -13.2131 -6.14925 0 -13.1536 -6.2337 0 -13.0895 -6.3085 0 -13.0186 -6.37704 0 -12.9416 -6.43863 0 -12.8589 -6.4927 0 -12.7714 -6.53871 0 -12.6798 -6.57635 0 -12.5407 -6.61572 0 -12.397 -6.63601 0 -12.2519 -6.63629 0 -12.1084 -6.61708 0 -11.9685 -6.57859 0 -11.8348 -6.52109 0 -11.7105 -6.44558 0 -11.598 -6.35352 0 -11.4993 -6.24677 0 -11.416 -6.12744 0 -11.4335 -6.01326 0 -11.452 -5.8995 0 -11.5129 -4.9594 0 -11.4171 -5.0208 0 -11.3116 -5.06284 0 -11.2005 -5.08491 0 -11.1042 -5.06182 0 -11.0091 -5.03658 0 -10.9149 -5.0091 0 -10.8211 -4.97912 0 -10.7276 -4.9461 0 -10.6364 -4.90722 0 -10.5468 -4.8661 0 -10.4589 -4.82328 0 -10.372 -4.77859 0 -10.2865 -4.73031 0 -10.2493 -4.62778 0 -10.2815 -4.53092 0 -10.3407 -4.3584 0 -10.4001 -4.18546 0 -10.4588 -4.01455 0 -10.5028 -3.88991 0 -10.5469 -3.76431 0 -10.5913 -3.6392 0 -10.6362 -3.51636 0 -10.7735 -3.41273 0 -10.9509 -3.36836 0 -11.1022 -3.33244 0 -11.2533 -3.29908 0 -11.4098 -3.33611 0 -11.5561 -3.40512 0 -11.6719 -3.50725 0 -11.7886 -3.60902 0 -11.785 -3.72549 0 -11.7771 -3.84266 0 -11.7674 -3.95905 0 -11.7557 -4.07478 0 -11.7419 -4.19062 0 -11.7263 -4.30629 0 -11.7085 -4.42243 0 -11.6887 -4.53949 0 -11.6672 -4.65639 0 -11.6332 -4.83161 0 -11.0042 5.00445 0 -11.1225 5.03149 0 -11.2509 5.0014 0 -11.3177 4.91083 0 -11.382 4.8202 0 -11.4434 4.73082 0 -11.5022 4.64316 0 -11.5594 4.55594 0 -11.6152 4.46902 0 -11.6702 4.38209 0 -11.7246 4.29478 0 -11.7777 4.20631 0 -11.8299 4.11758 0 -11.8795 4.02697 0 -11.86 3.89432 0 -11.8175 3.76807 0 -11.7533 3.65181 0 -11.6628 3.54152 0 -11.5524 3.45052 0 -11.4264 3.38266 0 -11.298 3.39459 0 -11.1695 3.4092 0 -11.0418 3.4262 0 -10.9169 3.45223 0 -10.7939 3.48054 0 -10.6729 3.51101 0 -10.5816 3.539 0 -10.4941 3.56876 0 -10.4108 3.59914 0 -10.3302 3.62827 0 -10.3511 3.72864 0 -10.3719 3.82686 0 -10.3907 3.92338 0 -10.4088 4.01887 0 -10.4274 4.11386 0 -10.4462 4.20849 0 -10.4652 4.3028 0 -10.4831 4.39607 0 -10.4986 4.48576 0 -10.5094 4.56968 0 -10.5157 4.65088 0 -10.5242 4.73896 0 -10.6087 4.83057 0 -10.7081 4.88519 0 -10.8075 4.93376 0 -10.908 4.97052 0 -11.2402 -1.03939 0 -11.1834 -1.13396 0 -11.1031 -1.27463 0 -11.0259 -1.41751 0 -10.9518 -1.46917 0 -10.8733 -1.51485 0 -10.6986 -1.55082 0 -10.5229 -1.59007 0 -10.3393 -1.5506 0 -10.2067 -1.44144 0 -10.0683 -1.33831 0 -9.92546 -1.24079 0 -9.77772 -1.15599 0 -9.61804 -1.08577 0 -9.45464 -1.02233 0 -9.28921 -0.966969 0 -9.26753 -0.792133 0 -9.25417 -0.705356 0 -9.23935 -0.618778 0 -9.22323 -0.532421 0 -9.20596 -0.446052 0 -9.24013 -0.338664 0 -9.28407 -0.234872 0 -9.3373 -0.135926 0 -9.39926 -0.0424669 0 -9.4694 0.0450111 0 -9.54715 0.126014 0 -9.64305 0.154838 0 -9.73839 0.184009 0 -9.83319 0.214578 0 -9.92792 0.245877 0 -10.0209 0.28023 0 -10.1136 0.314782 0 -10.2347 0.3637 0 -10.3553 0.416839 0 -10.4893 0.403977 0 -10.6206 0.375433 0 -10.7365 0.314052 0 -10.8541 0.255346 0 -10.9723 0.199134 0 -11.0918 0.145763 0 -11.1954 0.101905 0 -11.3006 0.06048 0 -11.3722 -0.0355843 0 -11.4328 -0.137696 0 -11.4821 -0.244603 0 -11.519 -0.354927 0 -11.5428 -0.467038 0 -11.5532 -0.57996 0 -11.4887 -0.670946 0 -11.4238 -0.761506 0 -11.3601 -0.85323 0 -11.299 -0.945792 0 -9.63442 -2.71756 0 -9.69058 -2.82595 0 -9.72217 -2.94634 0 -9.72515 -3.07128 0 -9.67086 -3.1633 0 -9.61468 -3.25354 0 -9.55817 -3.34399 0 -9.4993 -3.43517 0 -9.43991 -3.52608 0 -9.3806 -3.61673 0 -9.3212 -3.70674 0 -9.26088 -3.79691 0 -9.20079 -3.88641 0 -9.13894 -3.97535 0 -9.0772 -4.06414 0 -8.98413 -4.13277 0 -8.87834 -4.179 0 -8.73587 -4.1578 0 -8.59303 -4.12938 0 -8.45222 -4.09424 0 -8.31148 -4.05335 0 -8.22921 -3.99514 0 -8.16103 -3.92098 0 -8.11508 -3.76332 0 -8.08235 -3.64653 0 -8.05148 -3.53059 0 -8.02165 -3.41323 0 -8.03848 -3.27567 0 -8.09698 -3.19437 0 -8.15728 -3.11433 0 