<VTKFile type="PolyData" version="0.1" byte_order="LittleEndian">
    <PolyData>
        <Piece NumberOfPoints="1773" NumberOfPolys="40">
            <CellData>
                <DataArray type="Float64" Name="area" format="ascii">
2.34013 2.95732 3.15791 1.90252 2.26939 2.74581 2.81282 2.88192 3.15345 2.25064 3.08129 1.47859 2.47427 3.20997 3.64812 1.33732 2.27412 2.25571 2.13223 1.77465 1.86313 2.90972 2.76086 2.53895 2.13038 2.54318 2.22414 2.95969 2.36874 2.39812 2.14699 1.90984 1.97478 2.56729 2.15444 1.83758 1.69842 1.69959 1.7586 1.42008 
                </DataArray>
                <DataArray type="Float64" Name="c1" format="ascii">
0.0516142 0.0184171 0.0212063 0.0203649 0.0202739 0.0113014 0.0277238 0.0399322 0.0130697 0.0261485 0.0114803 0.0161657 0.0142148 0.0306692 0.0398798 0.0288332 0.0138557 0.0351855 0.0180508 0.026486 0.0106544 0.0130765 0.0165158 0.0217192 0.0167071 0.0143481 0.0414062 0.0380039 0.015632 0.0191767 0.0201449 0.0238508 0.0163164 0.0386316 0.0279992 0.0150779 0.012245 0.0306371 0.033584 0.0141661 
                </DataArray>
                <DataArray type="Float64" Name="c2" format="ascii">
0.518923 0.632523 0.540787 0.646053 0.699181 0.871911 0.485935 0.44355 0.847847 0.514774 0.658536 0.77088 0.564497 0.601979 0.474266 0.473551 0.774841 0.529244 0.621548 0.554507 0.782465 0.680811 0.74404 0.641646 0.602101 0.838756 0.421471 0.480205 0.706405 0.512145 0.699702 0.567326 0.730391 0.534963 0.594452 0.588709 0.761838 0.510334 0.445652 0.860139 
                </DataArray>
                <DataArray type="Float64" Name="grad_c1" NumberOfComponents="2" format="ascii">
0.00221168 -0.001173 0.00239393 0.00234088 0.00209213 0.00373394 0.00299913 -0.00309309 0.00377031 -0.0013161 0.000619496 0.00104423 0.00183096 0.00485099 0.00148001 -0.00195303 0.00128317 -0.000949939 0.000747279 -0.00525108 0.000705125 0.00152456 0.00233578 0.000403129 0.0009533 0.00221678 0.00930616 0.000890648 -0.00235242 0.00476843 9.28176e-05 -0.00507303 0.00121481 0.00134023 0.0020998 -0.0112309 0.00167176 -0.00305054 0.00393184 0.00496446 0.000629037 0.0011404 0.00113204 0.00161499 0.00226264 -0.00156981 0.00391206 0.00232759 0.00171344 0.00246943 0.00133466 0.000495866 0.00515687 -0.00681656 -0.00344612 -0.00709324 0.00154042 -0.00210806 0.00141051 0.00343687 0.00394098 0.000323349 0.00218244 -0.00500167 0.00205689 0.00124175 0.00631468 0.00988161 0.00595421 -0.00545449 0.00122136 0.00229731 0.000944616 0.00132299 0.00234587 0.00627518 0.000669162 -0.00504007 0.00123891 2.03679e-05 
                </DataArray>
                <DataArray type="Float64" Name="grad_c2" NumberOfComponents="2" format="ascii">
-0.0358443 0.00238662 -0.0579956 0.000284018 -0.0313211 -0.00644151 -0.0578917 0.0145044 -0.0690486 0.00778178 -0.0784885 0.000158842 -0.0255626 -0.00412121 -0.0200612 0.000626393 -0.0638236 0.0070892 -0.0297365 0.0163359 -0.0517078 -0.0172827 -0.0680909 0.00619755 -0.0366047 -0.0164146 -0.0504951 0.0037512 -0.025214 -0.00127562 -0.023919 0.0128589 -0.0836942 0.00396078 -0.0352527 0.008467 -0.0477971 0.0185624 -0.0383769 0.00238797 -0.0689559 -0.0122184 -0.0592119 -0.0165062 -0.0614619 0.0105448 -0.0596028 0.00533506 -0.0482054 -0.010061 -0.0849303 -0.0154309 -0.0166112 0.00215173 -0.0258055 0.00690242 -0.0631574 0.015507 -0.0293861 -0.00992076 -0.0631319 0.00687718 -0.0377073 0.0161285 -0.0740011 -0.00159134 -0.0375231 0.001691 -0.049608 0.00751491 -0.040796 -0.018202 -0.0724818 -0.00836172 -0.0279903 -0.00168629 -0.0201621 0.00918423 -0.0822889 -0.00252029 
                </DataArray>
                <DataArray type="Float64" Name="D1" format="ascii">
20.1884 47.8887 46.4257 29.5543 23.66 26.9155 31.6639 27.4076 30.8932 41.7876 28.6995 27.0936 25.8601 46.5973 31.4408 35.0437 37.913 16.8386 22.4411 28.3868 31.9534 36.3592 34.0147 20.1184 48.0826 38.3651 47.2917 29.8961 38.9749 43.0421 26.8686 32.3324 29.6121 52.4272 42.8323 25.5713 28.1693 45.098 44.1968 28.4491 
                </DataArray>
                <DataArray type="Float64" Name="D2" format="ascii">
28.1376 29.476 55.2662 32.7903 26.1502 20.7843 31.7025 33.9204 29.999 25.2094 41.1061 34.7848 33.2469 38.6467 34.7848 56.3213 22.3241 25.0052 21.7317 17.7694 45.6173 35.0981 35.203 30.2212 14.9015 18.5881 34.7508 28.0313 24.2088 26.0686 28.7328 30.8758 30.5008 53.0714 18.1999 22.0737 37.4859 35.7535 23.7409 30.8278 
                </DataArray>
                <DataArray type="Float64" Name="k1" format="ascii">
0.910378 0.571072 1.14395 1.54432 0.926629 1.25016 0.575564 1.55852 0.945503 0.860941 0.791226 0.616893 1.05281 1.17647 0.817944 0.63907 0.482176 1.56031 0.91796 0.830993 0.79104 0.957837 0.807719 1.03161 1.08356 0.877557 1.01713 0.934678 0.868774 1.64607 0.737187 1.13232 0.856645 1.08628 0.597704 0.754089 0.758816 0.893221 0.690579 1.14494 
                </DataArray>
                <DataArray type="Float64" Name="k2" format="ascii">
0.1 0.1 0.1 0.1 0.1 0.1 0.1 0.1 0.1 0.1 0.1 0.1 0.1 0.1 0.1 0.1 0.1 0.1 0.1 0.1 0.1 0.1 0.1 0.1 0.1 0.1 0.1 0.1 0.1 0.1 0.1 0.1 0.1 0.1 0.1 0.1 0.1 0.1 0.1 0.1 
                </DataArray>
                <DataArray type="Float64" Name="k3" format="ascii">
1 1 1 1 1 1 1 1 1 1 1 1 1 1 1 1 1 1 1 1 1 1 1 1 1 1 1 1 1 1 1 1 1 1 1 1 1 1 1 1 
                </DataArray>
                <DataArray type="Int64" Name="cell_type" format="ascii">
0 1 1 1 1 1 1 1 1 1 1 1 1 1 1 1 1 1 1 1 1 1 1 1 1 1 1 1 1 1 1 1 1 1 1 1 1 1 1 1 
                </DataArray>
                <DataArray type="Float64" Name="perimeter" format="ascii">
5.75254 6.60052 6.69822 5.20323 5.55357 6.06871 6.16392 6.20391 6.38943 5.43017 6.3433 4.5151 5.74793 6.73392 7.06017 4.22521 5.74469 5.49543 5.32838 4.88256 5.04996 6.64339 6.11855 5.84721 5.35573 5.83855 5.43612 6.30205 5.58925 5.61775 5.41479 5.10503 5.18097 5.93982 5.38089 5.05871 4.80474 4.80184 4.85809 4.34194 
                </DataArray>
                <DataArray type="Float64" Name="neighbors" format="ascii">
5 7 7 6 5 3 4 4 1 4 3 3 3 6 6 3 6 5 3 5 3 7 4 5 4 4 2 7 3 3 4 5 4 5 5 5 4 5 4 2 
                </DataArray>
            </CellData>
            <Points>
                <DataArray type="Float64" Name="Points" NumberOfComponents="3" format="ascii">
-7.02419 1.59065 0 -7.01077 1.48658 0 -6.99675 1.38276 0 -6.91299 1.27081 0 -6.80056 1.22424 0 -6.68763 1.17785 0 -6.57512 1.13143 0 -6.4641 1.08522 0 -6.35332 1.03875 0 -6.24273 0.990972 0 -6.13277 0.942429 0 -6.02398 0.893348 0 -5.91603 0.843424 0 -5.80841 0.792964 0 -5.70064 0.741891 0 -5.58651 0.733845 0 -5.47334 0.746433 0 -5.36986 0.855667 0 -5.27314 0.969807 0 -5.18382 1.08978 0 -5.10138 1.21632 0 -5.02602 1.34908 0 -4.96028 1.48869 0 -5.00549 1.59507 0 -5.07859 1.68448 0 -5.15155 1.77226 0 -5.22432 1.8591 0 -5.29826 1.9454 0 -5.3738 2.0312 0 -5.4779 2.14764 0 -5.61107 2.22708 0 -5.75492 2.2826 0 -5.9038 2.28327 0 -6.05405 2.28496 0 -6.20333 2.287 0 -6.3522 2.29021 0 -6.50167 2.29397 0 -6.64899 2.29943 0 -6.77932 2.22743 0 -6.92815 2.10491 0 -7.04805 1.94962 0 -7.0468 1.82959 0 -7.03812 1.70935 0 -7.90671 -1.15502 0 -7.97839 -1.01725 0 -8.09491 -0.933057 0 -8.20958 -0.952106 0 -8.32367 -0.970445 0 -8.43688 -0.987026 0 -8.54912 -1.00222 0 -8.66187 -1.01663 0 -8.77565 -1.03037 0 -8.88987 -1.0435 0 -9.00453 -1.05593 0 -9.11944 -1.06744 0 -9.23534 -1.07783 0 -9.35234 -1.08795 0 -9.45601 -1.18891 0 -9.51331 -1.3147 0 -9.57171 -1.43938 0 -9.6149 -1.5243 0 -9.66027 -1.60796 0 -9.70701 -1.6901 0 -9.75617 -1.77129 0 -9.80672 -1.85239 0 -9.85655 -1.93312 0 -9.85964 -2.05202 0 -9.85157 -2.17085 0 -9.8215 -2.28567 0 -9.79307 -2.40166 0 -9.76437 -2.51884 0 -9.73682 -2.63646 0 -9.66261 -2.72301 0 -9.5799 -2.80011 0 -9.40818 -2.84257 0 -9.29582 -2.86901 0 -9.1841 -2.89292 0 -9.04353 -2.8252 0 -8.93349 -2.7276 0 -8.82089 -2.63433 0 -8.70496 -2.54439 0 -8.58389 -2.45826 0 -8.44949 -2.38537 0 -8.35621 -2.34038 0 -8.263 -2.29536 0 -8.16724 -2.25958 0 -8.07162 -2.224 0 -7.97304 -2.19714 0 -7.8747 -2.16949 0 -7.77885 -2.10225 0 -7.74255 -2.01173 0 -7.70842 -1.9204 0 -7.67432 -1.82881 0 -7.64044 -1.7375 0 -7.60858 -1.64639 0 -7.71354 -1.48692 0 -7.81352 -1.32278 0 -7.72351 -1.98932 0 -7.76673 -2.10462 0 -7.70566 -2.24516 0 -7.60414 -2.3737 0 -7.5117 -2.51084 0 -7.42799 -2.65488 0 -7.35379 -2.8039 0 -7.29148 -2.95628 0 -7.24429 -3.11168 0 -7.16315 -3.24961 0 -7.06459 -3.37408 0 -6.93004 -3.45933 0 -6.79847 -3.54927 0 -6.66892 -3.64236 0 -6.52545 -3.64516 0 -6.38243 -3.62769 0 -6.24362 -3.5907 0 -6.13992 -3.46711 0 -6.03586 -3.34312 0 -5.9311 -3.21856 0 -5.82637 -3.09481 0 -5.72082 -2.97177 0 -5.61569 -2.84899 0 -5.55847 -2.68315 0 -5.61038 -2.5303 0 -5.64727 -2.42201 0 -5.68447 -2.31376 0 -5.72172 -2.20608 0 -5.75911 -2.09802 0 -5.79646 -1.99009 0 -5.83549 -1.88355 0 -5.98226 -1.82192 0 -6.12636 -1.7537 0 -6.26761 -1.68037 0 -6.40618 -1.60124 0 -6.47648 -1.56212 0 -6.57365 -1.54863 0 -6.71814 -1.5802 0 -6.86243 -1.60543 0 -7.00867 -1.62457 0 -7.15531 -1.63828 0 -7.30178 -1.64699 0 -7.44905 -1.65048 0 -7.59614 -1.64763 0 -7.63549 -1.75277 0 -7.67457 -1.85811 0 -8.95634 3.18625 0 -8.85968 3.121 0 -8.74762 3.12622 0 -8.63781 3.14979 0 -8.54988 3.23288 0 -8.46075 3.31578 0 -8.36978 3.39789 0 -8.27713 3.47893 0 -8.18306 3.55866 0 -8.08775 3.63698 0 -7.99139 3.71383 0 -7.89396 3.78921 0 -7.7954 3.86338 0 -7.6955 3.93682 0 -7.63865 4.05898 0 -7.60082 4.189 0 -7.61483 4.31442 0 -7.70725 4.47249 0 -7.84887 4.55672 0 -7.99075 4.6408 0 -8.13265 4.72483 0 -8.27421 4.80863 0 -8.42131 4.82736 0 -8.54423 4.77414 0 -8.66672 4.71942 0 -8.78884 4.66415 0 -8.91042 4.60851 0 -9.03188 4.55274 0 -9.15341 4.49687 0 -9.2421 4.39331 0 -9.23751 4.26858 0 -9.22871 4.09733 0 -9.21852 3.92605 0 -9.20618 3.75408 0 -9.19136 3.58242 0 -9.17405 3.41084 0 -9.10991 3.29106 0 -9.03318 3.23873 0 -10.442 2.14735 0 -10.3916 2.04889 0 -10.327 1.95824 0 -10.2507 1.8781 0 -10.1383 1.87796 0 -10.0258 1.87605 0 -9.91215 1.87187 0 -9.79881 1.86413 0 -9.68817 1.85392 0 -9.57736 1.84122 0 -9.46679 1.82655 0 -9.35757 1.8105 0 -9.24818 1.79297 0 -9.13747 1.77332 0 -9.03976 1.80527 0 -8.94796 1.85286 0 -8.86186 1.91366 0 -8.77716 2.04035 0 -8.6953 2.17018 0 -8.61671 2.30462 0 -8.54594 2.44395 0 -8.58698 2.58147 0 -8.63767 2.71829 0 -8.68766 2.8542 0 -8.7676 2.98523 0 -8.85957 3.10781 0 -8.9685 3.1825 0 -9.10599 3.27641 0 -9.24856 3.29657 0 -9.34486 3.27188 0 -9.44225 3.24502 0 -9.54001 3.2191 0 -9.63747 3.19308 0 -9.73515 3.16743 0 -9.83238 3.1412 0 -9.92838 3.11558 0 -10.0233 3.08976 0 -10.1184 3.06317 0 -10.2135 3.03626 0 -10.2856 2.9731 0 -10.3482 2.90133 0 -10.4013 2.8228 0 -10.4446 2.73867 0 -10.4803 2.63788 0 -10.5001 2.53158 0 -10.5047 2.42269 0 -10.4932 2.31395 0 -10.4722 2.22934 0 -12.1064 -4.53643 0 -11.9599 -4.55822 0 -11.8107 -4.55916 0 -11.6617 -4.53776 0 -11.5616 -4.41243 0 -11.4601 -4.28864 0 -11.4016 -4.15471 0 -11.3659 -4.01274 0 -11.3734 -3.86365 0 -11.3686 -3.7136 0 -11.3535 -3.56338 0 -11.3288 -3.41635 0 -11.2943 -3.27207 0 -11.2489 -3.1337 0 -11.2678 -2.99453 0 -11.3668 -2.89453 0 -11.4657 -2.7923 0 -11.5481 -2.70516 0 -11.6278 -2.61775 0 -11.7036 -2.52755 0 -11.7785 -2.43646 0 -11.9051 -2.43019 0 -12.0295 -2.43882 0 -12.151 -2.46155 0 -12.2701 -2.49873 0 -12.385 -2.55022 0 -12.493 -2.61486 0 -12.5928 -2.69298 0 -12.682 -2.78396 0 -12.759 -2.88546 0 -12.8236 -2.9957 0 -12.8743 -3.11421 0 -12.9112 -3.23893 0 -12.9337 -3.36719 0 -12.9407 -3.49672 0 -12.9303 -3.64134 0 -12.9001 -3.78205 0 -12.851 -3.91766 0 -12.7846 -4.0455 0 -12.7021 -4.16395 0 -12.6044 -4.27077 0 -12.4938 -4.36227 0 -12.3725 -4.43775 0 -12.242 -4.49635 0 -4.70185 -0.889811 0 -4.82503 -0.873536 0 -4.92997 -0.933264 0 -5.02595 -1.00518 0 -5.08771 -1.10558 0 -5.15362 -1.20353 0 -5.2239 -1.29826 0 -5.29847 -1.39135 0 -5.37633 -1.48248 0 -5.45784 -1.56969 0 -5.54404 -1.65408 0 -5.63344 -1.73476 0 -5.72631 -1.81137 0 -5.82234 -1.88506 0 -5.77698 -2.01588 0 -5.73152 -2.14731 0 -5.68598 -2.27888 0 -5.65106 -2.38016 0 -5.61643 -2.48153 0 -5.58199 -2.58289 0 -5.54629 -2.68325 0 -5.45493 -2.77068 0 -5.37134 -2.79526 0 -5.28595 -2.8204 0 -5.20096 -2.84583 0 -5.11604 -2.87142 0 -4.94664 -2.92313 0 -4.86209 -2.94915 0 -4.77736 -2.97374 0 -4.67402 -2.94846 0 -4.57337 -2.91325 0 -4.47686 -2.86865 0 -4.3853 -2.81498 0 -4.29942 -2.75286 0 -4.21991 -2.68316 0 -4.14769 -2.60669 0 -4.08347 -2.52377 0 -4.02759 -2.43478 0 -3.98027 -2.34057 0 -3.94221 -2.24203 0 -3.91422 -2.14019 0 -3.89643 -2.03641 0 -3.88866 -1.93178 0 -3.89099 -1.82733 0 -3.90352 -1.72391 0 -3.92604 -1.62204 0 -3.95792 -1.52252 0 -3.99905 -1.42632 0 -4.04986 -1.33447 0 -4.14913 -1.20015 0 -4.26743 -1.08237 0 -4.40215 -0.984534 0 -4.55049 -0.909246 0 -2.89937 0.487307 0 -2.79947 0.529051 0 -2.63817 0.623524 0 -2.49259 0.744379 0 -2.36749 0.887751 0 -2.26997 1.05003 0 -2.20245 1.22621 0 -2.25652 1.34222 0 -2.31218 1.45674 0 -2.36793 1.57127 0 -2.42457 1.6877 0 -2.48203 1.8057 0 -2.53946 1.92378 0 -2.59682 2.0417 0 -2.65406 2.15933 0 -2.71085 2.2766 0 -2.82583 2.35737 0 -2.94523 2.37258 0 -3.09835 2.39107 0 -3.25006 2.40991 0 -3.40138 2.42898 0 -3.55335 2.44878 0 -3.71457 2.36958 0 -3.82025 2.21713 0 -3.92387 2.06723 0 -3.98744 1.97477 0 -4.05053 1.88268 0 -4.11272 1.78961 0 -4.17434 1.69672 0 -4.23486 1.60403 0 -4.25495 1.47922 0 -4.16985 1.32737 0 -4.08051 1.17588 0 -4.01153 1.07019 0 -3.9389 0.968493 0 -3.86224 0.870289 0 -3.78254 0.776691 0 -3.70069 0.687326 0 -3.61561 0.601268 0 -3.52595 0.516718 0 -3.4327 0.436025 0 -3.32516 0.424008 0 -3.21694 0.423493 0 -3.10931 0.434262 0 -3.00309 0.455632 0 -11.4335 3.31218 0 -11.2779 3.36949 0 -11.1347 3.45131 0 -11.0066 3.55556 0 -10.9836 3.67901 0 -10.9614 3.80242 0 -10.9386 3.92514 0 -10.915 4.0473 0 -10.8905 4.16975 0 -10.8655 4.29238 0 -10.8399 4.41491 0 -10.8137 4.53775 0 -10.7868 4.66084 0 -10.7613 4.78405 0 -10.8469 4.92798 0 -10.9554 5.05592 0 -11.084 5.16415 0 -11.1718 5.22036 0 -11.2654 5.26675 0 -11.363 5.30369 0 -11.464 5.3303 0 -11.6129 5.35008 0 -11.7631 5.34794 0 -11.9118 5.32381 0 -12.0558 5.27833 0 -12.1921 5.21217 0 -12.3177 5.12658 0 -12.43 5.02331 0 -12.5263 4.90471 0 -12.6042 4.77362 0 -12.6621 4.63285 0 -12.6987 4.48534 0 -12.7135 4.33415 0 -12.7062 4.18229 0 -12.677 4.03316 0 -12.6269 3.89031 0 -12.5567 3.75668 0 -12.4679 3.635 0 -12.3624 3.52777 0 -12.2427 3.43735 0 -12.1116 3.36588 0 -11.9718 3.31465 0 -11.8264 3.28453 0 -11.6944 3.27613 0 -11.5628 3.28547 0 -5.54677 5.23567 0 -5.67387 5.18103 0 -5.789 5.11011 0 -5.89108 5.02467 0 -5.98108 4.92465 0 -5.97929 4.82388 0 -5.97625 4.72415 0 -5.97372 4.62589 0 -5.97139 4.52755 0 -5.96938 4.42838 0 -5.96762 4.32955 0 -5.96593 4.23201 0 -5.96426 4.13445 0 -5.96127 4.03698 0 -5.8635 3.94147 0 -5.74893 3.87344 0 -5.63433 3.80511 0 -5.47158 3.7041 0 -5.31054 3.59969 0 -5.21231 3.58408 0 -5.11419 3.57857 0 -5.01381 3.60493 0 -4.9141 3.63172 0 -4.81271 3.65939 0 -4.71231 3.68708 0 -4.61063 3.71501 0 -4.53222 3.78123 0 -4.48829 3.93636 0 -4.46184 4.02713 0 -4.43477 4.119 0 -4.40546 4.21204 0 -4.37506 4.30236 0 -4.34303 4.39313 0 -4.31063 4.48632 0 -4.33581 4.60211 0 -4.37582 4.7149 0 -4.45786 4.87323 0 -4.5694 5.00767 0 -4.70322 5.12472 0 -4.85702 5.21399 0 -5.02217 5.26856 0 -5.1977 5.29128 0 -5.37571 5.28003 0 -7.68348 -4.92329 0 -7.78431 -4.88366 0 -7.95035 -4.81198 0 -8.11465 -4.73432 0 -8.29374 -4.69191 0 -8.40223 -4.73979 0 -8.50963 -4.78923 0 -8.61761 -4.83929 0 -8.72543 -4.88953 0 -8.83314 -4.9394 0 -8.941 -4.98885 0 -9.04943 -5.03845 0 -9.15779 -5.08828 0 -9.26715 -5.13836 0 -9.37681 -5.18845 0 -9.41498 -5.33652 0 -9.43151 -5.48933 0 -9.42592 -5.64422 0 -9.40693 -5.7585 0 -9.37588 -5.86977 0 -9.33326 -5.97714 0 -9.27943 -6.07943 0 -9.21502 -6.17541 0 -9.14077 -6.26418 0 -9.02888 -6.36886 0 -8.90377 -6.45711 0 -8.76675 -6.52631 0 -8.6214 -6.57583 0 -8.47082 -6.60395 0 -8.31729 -6.60973 0 -8.16462 -6.59365 0 -8.01587 -6.5559 0 -7.87345 -6.49749 0 -7.74083 -6.42027 0 -7.62051 -6.32511 0 -7.51456 -6.21344 0 -7.4259 -6.08839 0 -7.35642 -5.95212 0 -7.29897 -5.77607 0 -7.27209 -5.5935 0 -7.33116 -5.4344 0 -7.38892 -5.2756 0 -7.44619 -5.11642 0 -7.50997 -5.03486 0 -7.58033 -4.96014 0 -10.9768 1.44676 0 -11.1114 1.42159 0 -11.2429 1.37447 0 -11.3633 1.30908 0 -11.3869 1.2294 0 -11.4067 1.14358 0 -11.4264 1.05923 0 -11.4461 0.974479 0 -11.4656 0.888202 0 -11.4846 0.800547 0 -11.5028 0.714774 0 -11.5191 0.631506 0 -11.5345 0.546553 0 -11.5472 0.460913 0 -11.5591 0.381359 0 -11.5077 0.293231 0 -11.436 0.24947 0 -11.3301 0.189192 0 -11.2223 0.130795 0 -11.1172 0.0762789 0 -11.0081 0.0240098 0 -10.8957 -0.0233123 0 -10.7836 -0.0648874 0 -10.6026 -0.0190464 0 -10.4438 0.0688594 0 -10.3101 0.191487 0 -10.2392 0.282142 0 -10.1838 0.379315 0 -10.2154 0.465335 0 -10.2501 0.552732 0 -10.285 0.641402 0 -10.3199 0.729822 0 -10.3637 0.828809 0 -10.41 0.92956 0 -10.4567 1.02823 0 -10.5055 1.12917 0 -10.5526 1.2257 0 -10.6021 1.32345 0 -10.6555 1.41614 0 -10.8155 1.44709 0 -5.51471 -5.13261 0 -5.48804 -4.99175 0 -5.48094 -4.84909 0 -5.49344 -4.70678 0 -5.56964 -4.63899 0 -5.6475 -4.57257 0 -5.72536 -4.50631 0 -5.80342 -4.44018 0 -5.88173 -4.3743 0 -5.96047 -4.30857 0 -6.0395 -4.24293 0 -6.11837 -4.17765 0 -6.19746 -4.11253 0 -6.31785 -4.11474 0 -6.43713 -4.13349 0 -6.55216 -4.1685 0 -6.66098 -4.21972 0 -6.72693 -4.2997 0 -6.79508 -4.37825 0 -6.86512 -4.4553 0 -6.93711 -4.5307 0 -7.01096 -4.60401 0 -7.08663 -4.6749 0 -7.16435 -4.74335 0 -7.24393 -4.80958 0 -7.32534 -4.87381 0 -7.41024 -4.93717 0 -7.43469 -5.11888 0 -7.39965 -5.2164 0 -7.36451 -5.31361 0 -7.32899 -5.41127 0 -7.29296 -5.50871 0 -7.26115 -5.59048 0 -7.19095 -5.65665 0 -7.03349 -5.76807 0 -6.85803 -5.84835 0 -6.67035 -5.89424 0 -6.47794 -5.90435 0 -6.28731 -5.87915 0 -6.134 -5.83202 0 -5.98926 -5.76161 0 -5.85712 -5.66924 0 -5.74111 -5.55719 0 -5.64375 -5.4282 0 -5.56767 -5.28534 0 -8.10516 2.31169 0 -8.20947 2.3372 0 -8.37361 2.38614 0 -8.53948 2.42899 0 -8.61164 2.29306 0 -8.68928 2.16086 0 -8.77069 2.03203 0 -8.85544 1.90508 0 -8.90575 1.74936 0 -8.93811 1.5882 0 -8.90719 1.42088 0 -8.88864 1.24928 0 -8.87928 1.07779 0 -8.87782 0.906296 0 -8.88446 0.738272 0 -8.79359 0.606927 0 -8.66286 0.538003 0 -8.53373 0.465039 0 -8.3879 0.378853 0 -8.2441 0.288516 0 -8.13105 0.213898 0 -8.01673 0.134893 0 -7.90581 0.167807 0 -7.79713 0.213609 0 -7.69269 0.269194 0 -7.5922 0.335688 0 -7.54805 0.450455 0 -7.49791 0.561967 0 -7.4435 0.667455 0 -7.38529 0.769101 0 -7.32301 0.869331 0 -7.2571 0.967759 0 -7.18788 1.06348 0 -7.1147 1.15652 0 -7.03778 1.24764 0 -7.00788 1.39104 0 -7.02966 1.55232 0 -7.04861 1.71362 0 -7.05667 1.82732 0 -7.05866 1.9411 0 -7.12837 2.02493 0 -7.20059 2.1006 0 -7.27993 2.1728 0 -7.36548 2.23915 0 -7.47035 2.23673 0 -7.57622 2.23927 0 -7.68225 2.2445 0 -7.78752 2.25213 0 -7.8939 2.26889 0 -8.00137 2.28931 0 -4.26157 1.46786 0 -4.37173 1.51991 0 -4.46625 1.51422 0 -4.5607 1.51052 0 -4.75155 1.50728 0 -4.84805 1.50738 0 -4.95 1.48046 0 -5.01765 1.3436 0 -5.09304 1.21085 0 -5.1757 1.08401 0 -5.26581 0.963014 0 -5.36451 0.846625 0 -5.46929 0.735145 0 -5.50523 0.640922 0 -5.53401 0.545306 0 -5.52978 0.363254 0 -5.53226 0.184017 0 -5.54319 0.00625624 0 -5.56488 -0.166256 0 -5.52365 -0.25238 0 -5.45321 -0.309433 0 -5.38129 -0.366043 0 -5.31378 -0.429949 0 -5.2394 -0.500507 0 -5.16902 -0.577948 0 -5.10113 -0.655286 0 -5.03316 -0.733849 0 -4.93467 -0.801815 0 -4.83226 -0.863092 0 -4.73903 -0.874575 0 -4.64667 -0.886766 0 -4.55493 -0.898683 0 -4.46613 -0.885662 0 -4.37996 -0.865933 0 -4.29552 -0.839875 0 -4.21342 -0.807642 0 -4.13357 -0.769354 0 -4.05608 -0.72514 0 -3.98201 -0.675406 0 -3.91113 -0.620112 0 -3.84441 -0.560161 0 -3.76677 -0.478689 0 -3.69679 -0.390542 0 -3.63783 -0.299846 0 -3.58651 -0.204689 0 -3.54317 -0.105208 0 -3.50797 -0.00145025 0 -3.4805 0.105787 0 -3.46092 0.214892 0 -3.44996 0.324963 0 -3.44832 0.434582 0 -3.53673 0.513023 0 -3.62347 0.595018 0 -3.70789 0.680432 0 -3.78934 0.769336 0 -3.86728 0.86063 0 -3.94149 0.955135 0 -4.01205 1.05306 0 -4.07925 1.15452 0 -4.14145 1.25881 0 -4.20199 1.36317 0 -3.96961 3.3319 0 -3.87192 3.26845 0 -3.77013 3.2646 0 -3.70804 3.31639 0 -3.64685 3.37203 0 -3.58678 3.42764 0 -3.52824 3.48223 0 -3.47017 3.53639 0 -3.41222 3.59078 0 -3.35541 3.646 0 -3.30007 3.70074 0 -3.24524 3.75572 0 -3.1883 3.81361 0 -3.13408 3.87316 0 -3.132 3.98045 0 -3.14697 4.08543 0 -3.17726 4.19032 0 -3.24622 4.32186 0 -3.34342 4.43656 0 -3.45909 4.53124 0 -3.5945 4.59879 0 -3.74058 4.63527 0 -3.88739 4.64353 0 -4.03356 4.61867 0 -4.17488 4.56327 0 -4.30065 4.48005 0 -4.33276 4.3923 0 -4.36349 4.30526 0 -4.39262 4.21905 0 -4.42041 4.13155 0 -4.44656 4.04379 0 -4.47233 3.95563 0 -4.49717 3.86853 0 -4.51978 3.78224 0 -4.4775 3.68827 0 -4.39651 3.62646 0 -4.31298 3.56581 0 -4.22907 3.50712 0 -4.14303 3.44786 0 -4.0568 3.38976 0 -9.83095 -2.28907 0 -9.86193 -2.17226 0 -9.92435 -2.06609 0 -10.0027 -1.97041 0 -10.1222 -1.93414 0 -10.2397 -1.8961 0 -10.3554 -1.85655 0 -10.4698 -1.81547 0 -10.583 -1.77296 0 -10.6926 -1.72734 0 -10.8001 -1.6785 0 -10.9073 -1.62616 0 -11.0134 -1.57095 0 -11.12 -1.51251 0 -11.2535 -1.50581 0 -11.3808 -1.56681 0 -11.5064 -1.62809 0 -11.5758 -1.71144 0 -11.635 -1.80198 0 -11.6842 -1.89809 0 -11.7221 -1.99838 0 -11.7504 -2.10178 0 -11.7682 -2.20798 0 -11.7762 -2.31543 0 -11.7742 -2.42322 0 -11.6852 -2.53401 0 -11.6184 -2.61324 0 -11.5484 -2.69013 0 -11.4768 -2.76606 0 -11.4039 -2.8419 0 -11.3303 -2.91734 0 -11.2543 -2.99238 0 -11.1155 -3.02248 0 -10.9774 -2.99827 0 -10.8374 -2.98215 0 -10.6961 -2.975 0 -10.5541 -2.97471 0 -10.4116 -2.98067 0 -10.2706 -2.9963 0 -10.1287 -3.01496 0 -9.98642 -3.03556 0 -9.90235 -2.95733 0 -9.81995 -2.87696 0 -9.77558 -2.76314 0 -9.745 -2.64565 0 -9.78734 -2.46644 0 -5.9695 2.29392 0 -5.86146 2.29299 0 -5.75406 2.29369 0 -5.65027 2.35169 0 -5.55707 2.42801 0 -5.51988 2.5309 0 -5.48369 2.63612 0 -5.44956 2.74102 0 -5.41743 2.84427 0 -5.38679 2.94735 0 -5.35745 3.05103 0 -5.32926 3.15564 0 -5.30174 3.26264 0 -5.27554 3.36866 0 -5.25146 3.47496 0 -5.31361 3.58912 0 -5.41084 3.65293 0 -5.56192 3.74863 0 -5.71375 3.84095 0 -5.86819 3.93213 0 -6.04938 3.95395 0 -6.21867 3.88417 0 -6.39072 3.81209 0 -6.55662 3.72799 0 -6.72093 3.64208 0 -6.88456 3.552 0 -6.92832 3.44658 0 -6.95909 3.33718 0 -6.96135 3.231 0 -6.9636 3.12629 0 -6.96672 3.02149 0 -6.96984 2.91572 0 -6.97499 2.73732 0 -6.90234 2.57079 0 -6.79386 2.42568 0 -6.65493 2.31081 0 -6.5166 2.30444 0 -6.37924 2.30082 0 -6.24205 2.29775 0 -6.10633 2.29558 0 -7.84539 6.28212 0 -7.99507 6.25091 0 -8.13678 6.19473 0 -8.26597 6.11496 0 -8.37898 6.01446 0 -8.37909 5.90426 0 -8.37746 5.7948 0 -8.37542 5.68595 0 -8.37321 5.5774 0 -8.37073 5.46893 0 -8.36803 5.36058 0 -8.36495 5.25246 0 -8.36152 5.1446 0 -8.35771 5.03687 0 -8.35218 4.92923 0 -8.27557 4.82099 0 -8.18516 4.76748 0 -8.06539 4.69657 0 -7.94501 4.62527 0 -7.82427 4.55368 0 -7.70307 4.48328 0 -7.54331 4.50986 0 -7.43163 4.61526 0 -7.29479 4.7468 0 -7.1581 4.88077 0 -7.02282 5.01716 0 -6.88906 5.15688 0 -6.86156 5.27367 0 -6.84943 5.39363 0 -6.85433 5.51427 0 -6.87629 5.63329 0 -6.91445 5.74842 0 -6.96822 5.85745 0 -7.03724 5.95811 0 -7.1207 6.04831 0 -7.27665 6.16463 0 -7.4555 6.24511 0 -7.64842 6.28489 0 -6.58763 -1.54104 0 -6.51504 -1.3912 0 -6.50523 -1.24242 0 -6.49531 -1.09369 0 -6.48549 -0.945797 0 -6.47566 -0.795835 0 -6.467 -0.646778 0 -6.52183 -0.564344 0 -6.58953 -0.492124 0 -6.67935 -0.452559 0 -6.76985 -0.414075 0 -6.86567 -0.374049 0 -6.9611 -0.334602 0 -7.05712 -0.296751 0 -7.15299 -0.258759 0 -7.2493 -0.219816 0 -7.34826 -0.180299 0 -7.44659 -0.185435 0 -7.54127 -0.210387 0 -7.63579 -0.244181 0 -7.72382 -0.292809 0 -7.80326 -0.353228 0 -7.87593 -0.422345 0 -7.90722 -0.524172 0 -7.93697 -0.626271 0 -7.98679 -0.796367 0 -7.98606 -0.90177 0 -7.97249 -1.00698 0 -7.88829 -1.16793 0 -7.79961 -1.32667 0 -7.70413 -1.48319 0 -7.6027 -1.63578 0 -7.47422 -1.64013 0 -7.34594 -1.63819 0 -7.21822 -1.63218 0 -7.0915 -1.62246 0 -6.96578 -1.60906 0 -6.83902 -1.59136 0 -6.71179 -1.56867 0 -9.977 -4.65277 0 -10.0162 -4.55667 0 -10.0585 -4.46167 0 -10.1433 -4.39433 0 -10.2385 -4.34315 0 -10.3502 -4.34634 0 -10.4622 -4.34637 0 -10.5745 -4.3424 0 -10.6865 -4.33021 0 -10.798 -4.31442 0 -10.9085 -4.2953 0 -11.0181 -4.26851 0 -11.1267 -4.23798 0 -11.235 -4.20425 0 -11.3442 -4.23678 0 -11.4466 -4.28773 0 -11.5061 -4.36034 0 -11.5831 -4.45522 0 -11.6588 -4.55233 0 -11.6628 -4.65784 0 -11.6555 -4.76107 0 -11.6344 -4.86271 0 -11.6059 -4.96329 0 -11.5637 -5.05929 0 -11.511 -5.14927 0 -11.4544 -5.23158 0 -11.3866 -5.305 0 -11.2323 -5.43049 0 -11.0559 -5.5208 0 -10.9166 -5.56212 0 -10.7719 -5.58058 0 -10.6252 -5.57662 0 -10.4813 -5.55106 0 -10.3435 -5.50326 0 -10.2161 -5.43535 0 -10.1001 -5.34966 0 -9.99835 -5.24655 0 -9.91424 -5.12961 0 -9.84954 -5.00171 0 -9.91215 -4.82633 0 -9.88069 -4.88412 0 -9.8399 -4.99281 0 -9.76943 -5.03557 0 -9.69636 -5.07393 0 -9.5447 -5.13618 0 -9.46643 -5.16021 0 -9.3863 -5.17942 0 -9.27687 -5.13185 0 -9.16855 -5.08224 0 -9.06027 -5.03246 0 -8.95223 -4.98303 0 -8.844 -4.93342 0 -8.73636 -4.88361 0 -8.62905 -4.83361 0 -8.52146 -4.78371 0 -8.41384 -4.73415 0 -8.30619 -4.68485 0 -8.27162 -4.56431 0 -8.30095 -4.42843 0 -8.32487 -4.29235 0 -8.34767 -4.11955 0 -8.35721 -4.03277 0 -8.4123 -3.94151 0 -8.53926 -3.83038 0 -8.66087 -3.71106 0 -8.76812 -3.58304 0 -8.86825 -3.4469 0 -8.93362 -3.3437 0 -8.99247 -3.23736 0 -9.04386 -3.12885 0 -9.08896 -3.01798 0 -9.19221 -2.90326 0 -9.33379 -2.87035 0 -9.45608 -2.84147 0 -9.57799 -2.81331 0 -9.69655 -2.84311 0 -9.8124 -2.88468 0 -9.89534 -2.96443 0 -9.97794 -3.04347 0 -9.95891 -3.14949 0 -9.94511 -3.25716 0 -9.93725 -3.36588 0 -9.93737 -3.47595 0 -9.93926 -3.58712 0 -9.94772 -3.69462 0 -9.95694 -3.80301 0 -9.97484 -3.90808 0 -9.99911 -4.01105 0 -10.029 -4.11313 0 -10.0634 -4.21302 0 -10.0632 -4.33389 0 -10.0498 -4.45469 0 -10.0039 -4.55998 0 -9.96062 -4.66694 0 -9.92033 -4.775 0 -10.0434 5.01117 0 -10.1454 5.01469 0 -10.3094 4.99653 0 -10.468 4.94986 0 -10.6162 4.87664 0 -10.7501 4.77919 0 -10.7803 4.64379 0 -10.8098 4.50847 0 -10.8385 4.37301 0 -10.8666 4.2374 0 -10.894 4.10184 0 -10.9206 3.96636 0 -10.9462 3.83028 0 -10.9709 3.69351 0 -10.9945 3.55674 0 -10.9123 3.41935 0 -10.8096 3.29873 0 -10.6886 3.19956 0 -10.5815 3.1374 0 -10.466 3.09008 0 -10.3451 3.05901 0 -10.2213 3.04462 0 -10.1166 3.07404 0 -10.0128 3.10303 0 -9.90864 3.13117 0 -9.80242 3.15963 0 -9.69564 3.18833 0 -9.58919 3.21622 0 -9.42362 3.26048 0 -9.25771 3.30664 0 -9.18482 3.41904 0 -9.20447 3.61413 0 -9.22066 3.80958 0 -9.2337 4.00596 0 -9.24419 4.20218 0 -9.25373 4.39838 0 -9.31583 4.50183 0 -9.40641 4.57076 0 -9.49719 4.63945 0 -9.58734 4.70887 0 -9.6774 4.77855 0 -9.76573 4.85113 0 -9.85401 4.92374 0 -9.94241 4.99591 0 -9.61478 -0.756169 0 -9.54341 -0.86704 0 -9.47584 -0.980645 0 -9.35197 -1.07569 0 -9.22511 -1.06697 0 -9.0992 -1.05545 0 -8.97401 -1.04265 0 -8.84816 -1.02873 0 -8.72227 -1.01394 0 -8.59601 -0.99822 0 -8.46992 -0.981502 0 -8.34434 -0.963459 0 -8.21889 -0.943559 0 -8.09371 -0.920684 0 -7.99324 -0.783316 0 -7.93964 -0.599701 0 -7.8846 -0.412599 0 -7.89375 -0.275163 0 -7.91971 -0.138797 0 -7.96218 -0.00610216 0 -8.02033 0.121234 0 -8.15647 0.218891 0 -8.30012 0.312179 0 -8.44737 0.402547 0 -8.59783 0.489896 0 -8.69853 0.545643 0 -8.79952 0.597321 0 -8.92498 0.590067 0 -9.04742 0.566008 0 -9.15757 0.510798 0 -9.26768 0.45689 0 -9.37757 0.404447 0 -9.48806 0.353128 0 -9.58319 0.309644 0 -9.67729 0.267071 0 -9.74845 0.182821 0 -9.80862 0.091054 0 -9.85685 -0.00636728 0 -9.8921 -0.108252 0 -9.91322 -0.213922 0 -9.92139 -0.322692 0 -9.8168 -0.462088 0 -9.7155 -0.605354 0 -8.50871 -3.84405 0 -8.40948 -3.92872 0 -8.29315 -3.94407 0 -8.20315 -3.90486 0 -8.11464 -3.8632 0 -8.02689 -3.81968 0 -7.94071 -3.77476 0 -7.85615 -3.72854 0 -7.77262 -3.68074 0 -7.68981 -3.63114 0 -7.60764 -3.57957 0 -7.52646 -3.52613 0 -7.44618 -3.47072 0 -7.36693 -3.41376 0 -7.30683 -3.32468 0 -7.26821 -3.22422 0 -7.25303 -3.11746 0 -7.29566 -2.97618 0 -7.34827 -2.84311 0 -7.40846 -2.71591 0 -7.47492 -2.59348 0 -7.54797 -2.47445 0 -7.62885 -2.35817 0 -7.71916 -2.24408 0 -7.87728 -2.18141 0 -8.0677 -2.2332 0 -8.24984 -2.30091 0 -8.42121 -2.38254 0 -8.58475 -2.47085 0 -8.73941 -2.58336 0 -8.8896 -2.70382 0 -9.03323 -2.82986 0 -9.07675 -3.02049 0 -9.03431 -3.12584 0 -8.98553 -3.22888 0 -8.93081 -3.32846 0 -8.87078 -3.4245 0 -8.80575 -3.51528 0 -8.73811 -3.60353 0 -8.66579 -3.68992 0 -8.58837 -3.76842 0 -10.7217 -0.287688 0 -10.7484 -0.178487 0 -10.7905 -0.0739944 0 -10.9089 -0.0289378 0 -11.0316 0.0233555 0 -11.1532 0.0828659 0 -11.274 0.147203 0 -11.3921 0.211826 0 -11.5137 0.284079 0 -11.6532 0.298767 0 -11.7898 0.259242 0 -11.9292 0.223399 0 -12.071 0.192486 0 -12.2076 0.165593 0 -12.3184 0.0464763 0 -12.408 -0.0861527 0 -12.4771 -0.232615 0 -12.5232 -0.394269 0 -12.5423 -0.540644 0 -12.537 -0.690935 0 -12.5083 -0.834827 0 -12.4648 -0.97118 0 -12.403 -1.10081 0 -12.3217 -1.21664 0 -12.2583 -1.28899 0 -12.1913 -1.35578 0 -12.1191 -1.41667 0 -12.0399 -1.47071 0 -11.955 -1.51715 0 -11.8673 -1.5549 0 -11.7789 -1.58336 0 -11.6898 -1.60227 0 -11.5992 -1.61265 0 -11.5068 -1.61607 0 -11.4218 -1.57484 0 -11.3372 -1.535 0 -11.2524 -1.49425 0 -11.1741 -1.41177 0 -11.1196 -1.24626 0 -11.0544 -1.07852 0 -10.9806 -0.912913 0 -10.8977 -0.748662 0 -10.8082 -0.587765 0 -10.7112 -0.431982 0 -2.61318 2.49723 0 -2.68484 2.41044 0 -2.70127 2.28247 0 -2.65205 2.17802 0 -2.60168 2.07445 0 -2.5517 1.97172 0 -2.50079 1.86701 0 -2.44885 1.76032 0 -2.39734 1.65451 0 -2.34649 1.54999 0 -2.29573 1.44571 0 -2.2445 1.34019 0 -2.19277 1.23545 0 -2.02543 1.21502 0 -1.85736 1.22393 0 -1.69442 1.26175 0 -1.54238 1.32662 0 -1.45885 1.3759 0 -1.38013 1.43425 0 -1.30522 1.49923 0 -1.24189 1.57251 0 -1.18312 1.65194 0 -1.1341 1.73908 0 -1.0944 1.83019 0 -1.06552 1.92438 0 -1.04766 2.02321 0 -1.0392 2.12388 0 -1.04214 2.22548 0 -1.05719 2.32475 0 -1.0838 2.42132 0 -1.12205 2.51327 0 -1.16982 2.60028 0 -1.22641 2.68216 0 -1.29079 2.75917 0 -1.3633 2.83003 0 -1.44295 2.89349 0 -1.52791 2.94954 0 -1.62606 2.9985 0 -1.72779 3.03474 0 -1.83288 3.05719 0 -1.93995 3.06615 0 -2.04527 3.0657 0 -2.15042 3.05137 0 -2.24515 2.93978 0 -2.33708 2.82758 0 -2.43017 2.71546 0 -2.51909 2.60861 0 -4.86883 3.63363 0 -4.99294 3.60018 0 -5.1189 3.56704 0 -5.23947 3.47388 0 -5.26865 3.35499 0 -5.29813 3.236 0 -5