<VTKFile type="PolyData" version="0.1" byte_order="LittleEndian">
    <PolyData>
        <Piece NumberOfPoints="76" NumberOfPolys="2">
            <CellData>
                <DataArray type="Float64" Name="area" format="ascii">
1.89313 1.89328 
                </DataArray>
                <DataArray type="Float64" Name="c1" format="ascii">
0.0323873 0.0212114 
                </DataArray>
                <DataArray type="Float64" Name="c2" format="ascii">
0.0243961 0.0250452 
                </DataArray>
                <DataArray type="Float64" Name="grad_c1" NumberOfComponents="2" format="ascii">
0.00178724 -0.00100737 0.00194275 0.00814486 
                </DataArray>
                <DataArray type="Float64" Name="grad_c2" NumberOfComponents="2" format="ascii">
-0.0096155 0.000125481 -0.00983253 -0.000173399 
                </DataArray>
                <DataArray type="Float64" Name="D1" format="ascii">
20.1884 47.8887 
                </DataArray>
                <DataArray type="Float64" Name="D2" format="ascii">
28.1376 29.476 
                </DataArray>
                <DataArray type="Float64" Name="k1" format="ascii">
0.910378 0.571072 
                </DataArray>
                <DataArray type="Float64" Name="k2" format="ascii">
0.1 0.1 
                </DataArray>
                <DataArray type="Float64" Name="k3" format="ascii">
1 1 
                </DataArray>
                <DataArray type="Int64" Name="cell_type" format="ascii">
0 1 
                </DataArray>
                <DataArray type="Float64" Name="perimeter" format="ascii">
4.90746 4.90765 
                </DataArray>
                <DataArray type="Float64" Name="neighbors" format="ascii">
1 1 
                </DataArray>
            </CellData>
            <Points>
                <DataArray type="Float64" Name="Points" NumberOfComponents="3" format="ascii">
-0.722408 0.548809 0 -0.687664 0.421967 0 -0.633792 0.299234 0 -0.559929 0.195163 0 -0.472784 0.104051 0 -0.371382 0.0321428 0 -0.257957 0.0225686 0 -0.144932 0.0134325 0 -0.034713 0.00485821 0 0.0747902 -0.00368709 0 0.187707 -0.01281 0 0.300182 -0.0213417 0 0.411172 0.0341858 0 0.511864 0.11041 0 0.600735 0.201295 0 0.673134 0.313789 0 0.727081 0.433515 0 0.773387 0.591242 0 0.787173 0.752692 0 0.76974 0.910608 0 0.7205 1.05923 0 0.647815 1.19604 0 0.550559 1.31579 0 0.434474 1.41178 0 0.302479 1.47981 0 0.231328 1.50384 0 0.158396 1.52161 0 0.0847435 1.53106 0 0.0105103 1.53316 0 -0.0642731 1.52715 0 -0.138193 1.51479 0 -0.278851 1.46839 0 -0.408421 1.39139 0 -0.523175 1.28799 0 -0.616551 1.16479 0 -0.688642 1.02603 0 -0.730285 0.872871 0 -0.742663 0.710783 0 0.650361 -0.548921 0 0.615619 -0.422064 0 0.561735 -0.299333 0 0.487872 -0.195256 0 0.400719 -0.104139 0 0.299312 -0.0322398 0 0.185881 -0.0226587 0 0.0728582 -0.0135299 0 -0.0373569 -0.00493102 0 -0.146859 0.00358926 0 -0.259773 0.0127191 0 -0.372255 0.0212449 0 -0.483248 -0.0342727 0 -0.583947 -0.110501 0 -0.67282 -0.201393 0 -0.745229 -0.313882 0 -0.799178 -0.433621 0 -0.845485 -0.591352 0 -0.859272 -0.752812 0 -0.84185 -0.910733 0 -0.792606 -1.05937 0 -0.719908 -1.19619 0 -0.622655 -1.31593 0 -0.506571 -1.41193 0 -0.374563 -1.47996 0 -0.303406 -1.50399 0 -0.230472 -1.52176 0 -0.15682 -1.53121 0 -0.0825872 -1.53331 0 -0.00780073 -1.5273 0 0.0661258 -1.51494 0 0.206797 -1.46854 0 0.336367 -1.39154 0 0.451116 -1.28814 0 0.544504 -1.16494 0 0.616604 -1.02616 0 0.658238 -0.872996 0 0.670617 -0.710895 0 
                </DataArray>
            </Points>
            <Polys>
                <DataArray type="Int64" Name="connectivity" format="ascii">
0 1 2 3 4 5 6 7 8 9 10 11 12 13 14 15 16 17 18 19 20 21 22 23 24 25 26 27 28 29 30 31 32 33 34 35 36 37 38 39 40 41 42 43 44 45 46 47 48 49 50 51 52 53 54 55 56 57 58 59 60 61 62 63 64 65 66 67 68 69 70 71 72 73 74 75 
                </DataArray>
                <DataArray type="Int64" Name="offsets" format="ascii">
38 76 
                </DataArray>
            </Polys>
        </Piece>
    </PolyData>
</VTKFile>
