<VTKFile type="PolyData" version="0.1" byte_order="LittleEndian">
    <PolyData>
        <Piece NumberOfPoints="3057" NumberOfPolys="70">
            <CellData>
                <DataArray type="Float64" Name="area" format="ascii">
1.83616 2.48488 2.67636 1.61799 3.28549 2.21321 3.55131 1.34451 2.56285 2.0831 1.59478 1.72063 3.45893 2.23775 2.58494 2.20189 2.10742 2.21021 1.9311 3.08947 2.28501 2.32206 2.06759 1.61536 2.52964 1.82437 3.27096 1.84339 2.23688 1.56092 3.09953 2.81667 1.37527 1.27056 2.37447 2.54811 3.1564 2.55461 3.39256 1.25134 1.73858 2.63813 2.38632 2.25816 2.61357 2.1405 1.40108 2.59244 2.36574 2.06477 2.45672 2.51425 2.11157 2.23936 2.28444 1.69981 2.20097 2.08751 2.21115 1.80721 1.40647 1.48144 1.9634 1.58228 1.22559 1.79377 1.65141 1.56279 1.38149 1.29602 
                </DataArray>
                <DataArray type="Float64" Name="c1" format="ascii">
0.0532734 0.0139492 0.0164797 0.0180021 0.0184792 0.0099925 0.023308 0.031754 0.0113988 0.0204644 0.00838084 0.0142575 0.0107539 0.0226977 0.0336643 0.0219619 0.0112375 0.0248262 0.0152772 0.0251638 0.0086257 0.0109824 0.0156707 0.0212793 0.0153272 0.012737 0.029103 0.0368169 0.0126033 0.0169326 0.0174168 0.0187644 0.0143686 0.0369013 0.0228543 0.0119909 0.00996657 0.0272666 0.0265023 0.0135958 0.0332907 0.0406167 0.0275164 0.0384217 0.00965962 0.00934363 0.00894508 0.0274005 0.0180685 0.0126034 0.0197468 0.0143764 0.0315641 0.0132316 0.023691 0.0118203 0.0136455 0.0178701 0.0125081 0.012798 0.0180871 0.0144454 0.0169453 0.0411364 0.0133868 0.0135385 0.0398911 0.0126953 0.0352261 0.0284433 
                </DataArray>
                <DataArray type="Float64" Name="c2" format="ascii">
0.500971 0.709539 0.549606 0.65436 0.72811 0.955072 0.495664 0.443277 0.938193 0.509033 0.785656 0.851506 0.612437 0.650068 0.479786 0.473537 0.895317 0.528039 0.67487 0.555739 0.886135 0.755626 0.772399 0.64343 0.608276 0.94498 0.41494 0.493736 0.774867 0.506751 0.74949 0.595828 0.758623 0.543613 0.622639 0.638084 0.860091 0.505451 0.443722 0.937087 0.439396 0.471769 0.480233 0.502442 0.758987 0.711155 0.953858 0.596541 0.632576 0.941906 0.554152 0.762855 0.531406 0.847273 0.582444 0.801837 0.679723 0.561511 0.6748 0.866966 0.691914 0.857755 0.706069 0.472791 0.950306 0.542157 0.531188 0.794991 0.447083 0.578899 
                </DataArray>
                <DataArray type="Float64" Name="grad_c1" NumberOfComponents="2" format="ascii">
0.000246867 -0.000688531 0.00138428 0.00145251 0.001159 0.00291149 0.00200796 -0.00263348 0.00268585 -0.00067009 0.000187617 0.000796904 0.000921416 0.0043809 -0.0034563 -0.00305733 0.000182292 -0.000882041 6.21992e-05 -0.00370107 0.000332464 0.000946025 0.00124246 0.000455722 0.000339137 0.001574 0.00413842 0.000651511 -0.000141912 0.00601452 -0.000536162 -0.00378701 0.000460757 0.00068416 0.00061013 -0.00536335 0.0012687 -0.00211844 0.00310894 0.00377055 0.000224299 0.000812166 0.000599718 0.00121181 0.00177632 -0.0012723 0.00373471 0.00215272 0.00151375 0.00231424 0.000409896 0.00070965 -0.00192952 -0.00186639 -0.00112593 -0.00987701 0.000854361 -0.00151804 0.000875636 0.00295374 0.0025347 0.00043892 0.00127398 -0.00332824 0.00151842 0.00129233 0.00981515 0.00314546 0.00336639 -0.00223465 0.000841937 0.00165322 0.00042565 0.000912189 0.00233051 0.0048761 -0.00156432 -0.00320511 0.000296544 0.000115488 -0.00313997 -8.40151e-05 -0.00605868 0.00344024 -0.000734571 -0.00538791 0.00526271 0.0101589 0.000489831 0.00102389 0.000505323 0.00113847 0.000115552 0.000663849 0.00543135 -0.00119945 0.00246839 0.00251887 0.000229599 -0.000726558 0.00198711 0.00329006 0.0012742 -0.00150277 0.00384048 -0.0064152 0.00110315 -0.000998436 0.00280214 -0.00374968 0.000780398 0.00100835 0.00075776 -0.0020137 0.000435411 -0.00316881 0.00106304 0.00164955 0.000884192 0.000888863 0.00243207 -0.0019454 0.00132692 0.000101183 0.00240613 0.00151543 -0.00749882 -0.00676723 0.000343161 0.000181014 0.000727393 0.0023916 0.010019 -0.00614804 0.0010068 0.000859938 -0.0047787 -0.00200931 0.00499103 0.00267908 
                </DataArray>
                <DataArray type="Float64" Name="grad_c2" NumberOfComponents="2" format="ascii">
-0.031338 -0.000182126 -0.0599157 -0.00811287 -0.0330056 -0.0117604 -0.0535127 0.0174858 -0.0683838 0.00538894 -0.0696404 -0.00512342 -0.0197182 -0.00109905 -0.0233218 0.00658248 -0.0657972 0.0146114 -0.0246347 0.0193264 -0.0539437 -0.0187068 -0.0772227 -0.0027717 -0.0517439 -0.0249558 -0.0528437 -0.00326706 -0.00827627 -0.00483322 -0.0175107 0.0119526 -0.0803204 -0.0204107 -0.0323281 0.013322 -0.0532546 0.0290077 -0.0543214 -0.00339327 -0.0586974 -0.0197163 -0.0669736 -0.0226724 -0.0690186 0.00782067 -0.0459399 0.00195564 -0.0485363 -0.0127332 -0.0832527 0.0131771 -0.0163411 0.00269126 -0.0275471 0.00440482 -0.0652359 0.0300417 -0.020666 -0.0139578 -0.0642148 0.00281957 -0.0350654 0.0219679 -0.0647071 0.0167009 -0.0289777 0.0141833 -0.0581037 0.00948547 -0.0472234 -0.0293115 -0.0646608 -0.0175157 -0.0188276 -0.0131535 -0.0165549 0.013142 -0.0851674 0.00986819 -0.0254861 -0.0101676 -0.0118273 -0.00463401 -0.0188063 0.00960135 -0.0208048 0.0177437 -0.0571336 -0.0297963 -0.0471188 -0.0258901 -0.0580628 -0.0166011 -0.047809 -0.00564322 -0.0485922 0.00377618 -0.0768067 0.00185827 -0.032777 -0.00835726 -0.0669578 0.0282908 -0.0241858 0.011385 -0.0600053 0.0141283 -0.0387475 0.0197894 -0.0705518 -0.0204133 -0.0511499 0.0295067 -0.0342561 0.0231664 -0.0541074 -0.0196358 -0.0739256 0.0151995 -0.0597996 0.013009 -0.0710271 0.00136773 -0.0586464 0.0070379 -0.018955 0.001329 -0.0815311 -0.00795359 -0.032681 -0.0157567 -0.0254538 -0.00744951 -0.0697285 -0.0091552 -0.022824 -0.00742842 -0.0587339 0.00804751 
                </DataArray>
                <DataArray type="Float64" Name="D1" format="ascii">
20.1884 47.8887 46.4257 29.5543 23.66 26.9155 31.6639 27.4076 30.8932 41.7876 28.6995 27.0936 25.8601 46.5973 31.4408 35.0437 37.913 16.8386 22.4411 28.3868 31.9534 36.3592 34.0147 20.1184 48.0826 38.3651 47.2917 29.8961 38.9749 43.0421 26.8686 32.3324 29.6121 52.4272 42.8323 25.5713 28.1693 45.098 44.1968 28.4491 30.3703 41.505 32.6894 22.6517 35.3618 31.9818 24.0428 32.7424 26.7175 29.508 44.3121 28.2242 27.8128 26.5813 30.8246 46.914 48.7844 41.4616 31.3182 28.2595 20.2364 40.5486 24.6711 47.482 32.0649 44.6824 52.2158 47.3894 32.4518 52.2923 
                </DataArray>
                <DataArray type="Float64" Name="D2" format="ascii">
28.1376 29.476 55.2662 32.7903 26.1502 20.7843 31.7025 33.9204 29.999 25.2094 41.1061 34.7848 33.2469 38.6467 34.7848 56.3213 22.3241 25.0052 21.7317 17.7694 45.6173 35.0981 35.203 30.2212 14.9015 18.5881 34.7508 28.0313 24.2088 26.0686 28.7328 30.8758 30.5008 53.0714 18.1999 22.0737 37.4859 35.7535 23.7409 30.8278 21.4514 27.9131 23.3293 14.4624 29.8897 37.7594 29.304 28.5592 39.9196 26.3448 27.5206 49.805 30.1134 19.3908 37.1173 27.7042 52.5175 26.5361 31.9319 30.1957 27.006 30.3275 28.4724 19.6285 23.2588 18.6695 35.0552 19.8417 50.5155 42.4682 
                </DataArray>
                <DataArray type="Float64" Name="k1" format="ascii">
0.910378 0.571072 1.14395 1.54432 0.926629 1.25016 0.575564 1.55852 0.945503 0.860941 0.791226 0.616893 1.05281 1.17647 0.817944 0.63907 0.482176 1.56031 0.91796 0.830993 0.79104 0.957837 0.807719 1.03161 1.08356 0.877557 1.01713 0.934678 0.868774 1.64607 0.737187 1.13232 0.856645 1.08628 0.597704 0.754089 0.758816 0.893221 0.690579 1.14494 1.4856 0.921894 1.55448 1.14625 1.25886 1.23837 0.981043 1.37766 1.11592 1.33894 0.934055 1.04397 0.879296 1.21283 1.39915 0.756872 0.755242 0.89103 1.19026 0.871086 0.529083 1.22767 1.03069 1.1488 1.81727 1.21152 0.847017 0.734935 0.662995 1.28191 
                </DataArray>
                <DataArray type="Float64" Name="k2" format="ascii">
0.1 0.1 0.1 0.1 0.1 0.1 0.1 0.1 0.1 0.1 0.1 0.1 0.1 0.1 0.1 0.1 0.1 0.1 0.1 0.1 0.1 0.1 0.1 0.1 0.1 0.1 0.1 0.1 0.1 0.1 0.1 0.1 0.1 0.1 0.1 0.1 0.1 0.1 0.1 0.1 0.1 0.1 0.1 0.1 0.1 0.1 0.1 0.1 0.1 0.1 0.1 0.1 0.1 0.1 0.1 0.1 0.1 0.1 0.1 0.1 0.1 0.1 0.1 0.1 0.1 0.1 0.1 0.1 0.1 0.1 
                </DataArray>
                <DataArray type="Float64" Name="k3" format="ascii">
1 1 1 1 1 1 1 1 1 1 1 1 1 1 1 1 1 1 1 1 1 1 1 1 1 1 1 1 1 1 1 1 1 1 1 1 1 1 1 1 1 1 1 1 1 1 1 1 1 1 1 1 1 1 1 1 1 1 1 1 1 1 1 1 1 1 1 1 1 1 
                </DataArray>
                <DataArray type="Int64" Name="cell_type" format="ascii">
0 1 1 1 1 2 1 1 1 1 2 1 1 1 1 1 1 1 1 1 2 1 1 1 1 1 1 1 1 1 1 1 1 1 1 1 2 1 1 1 1 1 1 1 2 2 2 1 1 1 1 1 1 1 1 1 1 1 1 1 1 1 1 1 1 1 1 1 1 1 
                </DataArray>
                <DataArray type="Float64" Name="perimeter" format="ascii">
5.0372 5.8507 6.05011 4.78738 6.72253 5.64968 6.98621 4.33182 5.75679 5.29749 4.59699 4.84193 6.7351 5.54656 5.91401 5.42883 5.48358 5.53316 5.09667 6.43742 5.58429 5.71149 5.39495 4.68408 5.95957 5.07358 6.51288 5.14335 5.46358 4.52218 6.48397 6.27708 4.35411 4.10839 5.70362 5.924 6.62596 5.96174 6.84615 4.049 4.90923 6.00007 5.64507 5.49207 6.04707 5.30899 4.34374 6.08281 5.71959 5.1899 5.97812 5.79704 5.41152 5.51409 5.57046 4.80949 5.44615 5.28724 5.69552 5.08112 4.44857 4.46953 5.27076 4.6969 4.03192 4.90966 4.84216 4.65843 4.37731 4.1868 
                </DataArray>
                <DataArray type="Float64" Name="neighbors" format="ascii">
5 7 6 6 6 3 5 4 2 4 2 5 3 5 4 3 5 6 5 6 3 5 4 4 5 3 4 6 3 3 5 6 4 4 5 6 6 5 4 2 3 5 5 5 6 4 3 6 6 2 6 6 4 4 4 5 3 3 5 5 5 4 5 5 4 3 5 5 5 4 
                </DataArray>
            </CellData>
            <Points>
                <DataArray type="Float64" Name="Points" NumberOfComponents="3" format="ascii">
-6.04431 2.44338 0 -6.18592 2.47619 0 -6.29189 2.44589 0 -6.37798 2.38283 0 -6.43646 2.29506 0 -6.49862 2.20583 0 -6.55617 2.12326 0 -6.61462 2.03684 0 -6.66443 1.96071 0 -6.71155 1.89153 0 -6.76246 1.81773 0 -6.81022 1.74406 0 -6.85601 1.6725 0 -6.8983 1.59932 0 -6.88138 1.47089 0 -6.84031 1.34099 0 -6.79603 1.2219 0 -6.73935 1.14635 0 -6.67474 1.07764 0 -6.54469 0.99958 0 -6.40801 0.922664 0 -6.26878 0.849254 0 -6.1294 0.776927 0 -5.99694 0.694955 0 -5.87985 0.71643 0 -5.77264 0.761271 0 -5.70769 0.802744 0 -5.64533 0.857746 0 -5.61513 0.955292 0 -5.58315 1.05507 0 -5.54978 1.15303 0 -5.51295 1.24512 0 -5.44335 1.41806 0 -5.37862 1.57427 0 -5.34736 1.6556 0 -5.32104 1.73605 0 -5.41803 1.8311 0 -5.51624 1.93684 0 -5.59977 2.0428 0 -5.67699 2.14803 0 -5.74095 2.24755 0 -5.80676 2.3395 0 -5.87463 2.39615 0 -5.94463 2.4149 0 -10.4462 -3.16326 0 -10.3594 -3.09511 0 -10.2932 -2.96846 0 -10.2446 -2.83305 0 -10.2157 -2.69327 0 -10.2734 -2.58657 0 -10.3299 -2.47772 0 -10.3848 -2.36783 0 -10.4378 -2.25801 0 -10.49 -2.14585 0 -10.5403 -2.03291 0 -10.5893 -1.91903 0 -10.6382 -1.8035 0 -10.6864 -1.68777 0 -10.794 -1.59162 0 -10.901 -1.56866 0 -11.0038 -1.54765 0 -11.1604 -1.50937 0 -11.3353 -1.54084 0 -11.3992 -1.60322 0 -11.4642 -1.66618 0 -11.5931 -1.79178 0 -11.6922 -1.88252 0 -11.7593 -2.02726 0 -11.7902 -2.15566 0 -11.8293 -2.28237 0 -11.8615 -2.38858 0 -11.897 -2.51363 0 -11.8829 -2.64807 0 -11.8353 -2.75407 0 -11.7816 -2.87324 0 -11.7277 -2.99466 0 -11.6801 -3.13004 0 -11.6421 -3.27409 0 -11.6129 -3.41954 0 -11.5325 -3.51167 0 -11.4248 -3.52959 0 -11.3214 -3.54691 0 -11.1853 -3.57214 0 -11.0392 -3.60298 0 -10.8715 -3.57645 0 -10.7672 -3.46647 0 -10.6626 -3.3597 0 -10.5575 -3.25754 0 -6.72604 -2.99563 0 -6.83116 -2.98017 0 -6.94021 -2.98113 0 -7.03328 -3.04165 0 -7.13042 -3.09801 0 -7.22969 -3.15141 0 -7.32769 -3.20218 0 -7.42585 -3.25119 0 -7.52507 -3.30037 0 -7.62784 -3.35095 0 -7.73473 -3.40211 0 -7.84096 -3.45286 0 -7.94347 -3.50113 0 -8.03896 -3.54701 0 -8.11895 -3.67851 0 -8.15965 -3.84326 0 -8.20342 -4.00358 0 -8.23451 -4.10732 0 -8.26577 -4.21 0 -8.26735 -4.31168 0 -8.25837 -4.40915 0 -8.19706 -4.48642 0 -8.13287 -4.56367 0 -8.06704 -4.64224 0 -7.99822 -4.71788 0 -7.93245 -4.79089 0 -7.8667 -4.86261 0 -7.76726 -4.89345 0 -7.6648 -4.91637 0 -7.56028 -4.93111 0 -7.45492 -4.9351 0 -7.35215 -4.92904 0 -7.25244 -4.90809 0 -7.14265 -4.84104 0 -7.03421 -4.78042 0 -6.91856 -4.71738 0 -6.80093 -4.65383 0 -6.68542 -4.58851 0 -6.59034 -4.48847 0 -6.51062 -4.36898 0 -6.48699 -4.25551 0 -6.45514 -4.14753 0 -6.41658 -4.03241 0 -6.37617 -3.91998 0 -6.33557 -3.81275 0 -6.31311 -3.70277 0 -6.31143 -3.57901 0 -6.40388 -3.44645 0 -6.46497 -3.35409 0 -6.52751 -3.26422 0 -6.58916 -3.17796 0 -6.65426 -3.08933 0 -10.3125 5.39384 0 -10.3544 5.30375 0 -10.3507 5.20422 0 -10.3329 5.1064 0 -10.2727 5.04049 0 -10.2127 4.97318 0 -10.1526 4.90306 0 -10.0914 4.83174 0 -10.0329 4.7586 0 -9.97409 4.68512 0 -9.91856 4.60979 0 -9.86227 4.5356 0 -9.765 4.49642 0 -9.66282 4.47239 0 -9.55205 4.49024 0 -9.44046 4.50623 0 -9.32919 4.52329 0 -9.25172 4.5841 0 -9.18159 4.65424 0 -9.07192 4.81151 0 -8.96028 4.96875 0 -8.84525 5.12581 0 -8.72674 5.2807 0 -8.71499 5.42986 0 -8.74037 5.57615 0 -8.83047 5.71871 0 -8.93234 5.7496 0 -9.03661 5.76814 0 -9.14266 5.76581 0 -9.24826 5.76604 0 -9.35364 5.76873 0 -9.45809 5.77328 0 -9.56215 5.78006 0 -9.66533 5.78914 0 -9.76825 5.80024 0 -9.87025 5.81326 0 -9.97196 5.82875 0 -10.0739 5.84306 0 -10.1557 5.69529 0 -10.2347 5.5465 0 -12.2977 2.51996 0 -12.2456 2.40125 0 -12.1738 2.29494 0 -12.0833 2.20148 0 -11.9568 2.16233 0 -11.8309 2.12159 0 -11.7055 2.08071 0 -11.5811 2.03952 0 -11.4579 1.99686 0 -11.3363 1.95246 0 -11.2135 1.90574 0 -11.0881 1.85622 0 -10.9632 1.80527 0 -10.8404 1.75212 0 -10.692 1.77263 0 -10.551 1.81978 0 -10.4192 1.91696 0 -10.3273 1.98455 0 -10.2353 2.05084 0 -10.1655 2.15058 0 -10.1046 2.25726 0 -10.0533 2.36941 0 -10.0293 2.4878 0 -10.0056 2.60623 0 -9.98347 2.72498 0 -10.0827 2.8779 0 -10.1747 3.03528 0 -10.2585 3.19637 0 -10.3356 3.36248 0 -10.4527 3.50046 0 -10.5839 3.55308 0 -10.7488 3.62238 0 -10.9135 3.69509 0 -11.0144 3.65766 0 -11.1144 3.61978 0 -11.2142 3.58524 0 -11.3132 3.5543 0 -11.4124 3.52769 0 -11.5121 3.50223 0 -11.6117 3.47813 0 -11.7108 3.45605 0 -11.8095 3.43995 0 -11.9088 3.42502 0 -12.0082 3.41129 0 -12.1075 3.39838 0 -12.1825 3.31291 0 -12.2445 3.21687 0 -12.2976 3.10018 0 -12.3317 2.97685 0 -12.346 2.8476 0 -12.342 2.71864 0 -12.3258 2.61851 0 -14.9755 -4.85729 0 -14.9261 -4.96701 0 -14.8518 -5.06342 0 -14.7566 -5.13991 0 -14.6464 -5.19244 0 -14.5481 -5.16217 0 -14.4495 -5.12987 0 -14.3516 -5.09531 0 -14.2549 -5.05927 0 -14.159 -5.0215 0 -14.0638 -4.98135 0 -13.9686 -4.93988 0 -13.875 -4.89534 0 -13.7993 -4.76988 0 -13.7619 -4.61732 0 -13.7258 -4.46351 0 -13.6904 -4.30917 0 -13.6653 -4.1994 0 -13.6391 -4.09041 0 -13.6548 -3.97197 0 -13.6879 -3.85727 0 -13.7548 -3.77873 0 -13.8225 -3.70149 0 -13.8914 -3.62417 0 -13.9622 -3.54874 0 -14.0839 -3.42179 0 -14.2089 -3.29535 0 -14.3365 -3.17005 0 -14.4646 -3.04832 0 -14.5993 -3.05415 0 -14.7261 -3.09902 0 -14.8361 -3.17816 0 -14.923 -3.28514 0 -14.9794 -3.41169 0 -15.0003 -3.54943 0 -15.0003 -3.69062 0 -15.0005 -3.8333 0 -15.0003 -3.97659 0 -15.0003 -4.11992 0 -15.0003 -4.263 0 -15.0002 -4.40679 0 -15.0002 -4.55177 0 -15.0001 -4.69719 0 -5.31731 -1.55856 0 -5.46248 -1.53506 0 -5.59593 -1.59888 0 -5.72249 -1.67726 0 -5.81549 -1.79092 0 -5.90968 -1.89972 0 -6.00654 -2.00354 0 -6.10879 -2.10238 0 -6.2177 -2.19608 0 -6.33131 -2.28388 0 -6.44758 -2.36523 0 -6.56418 -2.44097 0 -6.68299 -2.51034 0 -6.80296 -2.577 0 -6.803 -2.68387 0 -6.78095 -2.78962 0 -6.75391 -2.88644 0 -6.72016 -2.98513 0 -6.61877 -3.12006 0 -6.54035 -3.22856 0 -6.46273 -3.33955 0 -6.38615 -3.4546 0 -6.3077 -3.56713 0 -6.19615 -3.62172 0 -6.10923 -3.61888 0 -6.00383 -3.61484 0 -5.89675 -3.61854 0 -5.80294 -3.62358 0 -5.70993 -3.63009 0 -5.6097 -3.63891 0 -5.50625 -3.65041 0 -5.40659 -3.66278 0 -5.29197 -3.63078 0 -5.18397 -3.59568 0 -5.07963 -3.55088 0 -4.98298 -3.496 0 -4.895 -3.42753 0 -4.81503 -3.3531 0 -4.74065 -3.27576 0 -4.66785 -3.18887 0 -4.60677 -3.09827 0 -4.56116 -3.00613 0 -4.52196 -2.9059 0 -4.48647 -2.7985 0 -4.45821 -2.69114 0 -4.43836 -2.58768 0 -4.42759 -2.48678 0 -4.42882 -2.38583 0 -4.44468 -2.28477 0 -4.47532 -2.18577 0 -4.5196 -2.09003 0 -4.57636 -1.99703 0 -4.68779 -1.85589 0 -4.82013 -1.72639 0 -4.97013 -1.61297 0 -5.14301 -1.58637 0 -4.23267 2.71707 0 -4.20127 2.59685 0 -4.18413 2.49462 0 -4.12317 2.42106 0 -4.03977 2.41719 0 -3.96534 2.42182 0 -3.86924 2.40984 0 -3.77185 2.39362 0 -3.70101 2.38389 0 -3.63099 2.37534 0 -3.53537 2.35658 0 -3.43494 2.33175 0 -3.34298 2.30864 0 -3.24809 2.29814 0 -3.15393 2.27879 0 -3.06477 2.30773 0 -2.9665 2.36392 0 -2.92596 2.52415 0 -2.88798 2.70677 0 -2.85882 2.86391 0 -2.88866 2.96643 0 -2.94316 3.06559 0 -3.09479 3.18746 0 -3.19049 3.2609 0 -3.28025 3.32259 0 -3.37254 3.37607 0 -3.47258 3.42588 0 -3.57712 3.46243 0 -3.67848 3.4913 0 -3.7813 3.51362 0 -3.89367 3.52506 0 -4.03541 3.43101 0 -4.1641 3.31863 0 -4.26721 3.1846 0 -4.33736 3.02817 0 -4.30752 2.9236 0 -4.27624 2.82545 0 -14.8992 6.01542 0 -14.8743 5.86323 0 -14.8249 5.71768 0 -14.7512 5.58183 0 -14.6563 5.45954 0 -14.5581 5.43946 0 -14.459 5.42089 0 -14.3592 5.40172 0 -14.2598 5.38204 0 -14.1604 5.36207 0 -14.0602 5.34139 0 -13.9593 5.31983 0 -13.858 5.29769 0 -13.7565 5.27494 0 -13.6381 5.29713 0 -13.5253 5.33847 0 -13.4462 5.42764 0 -13.3377 5.54945 0 -13.229 5.67143 0 -13.1198 5.79385 0 -13.0101 5.91662 0 -12.9972 6.01833 0 -12.996 6.12123 0 -13.0064 6.22417 0 -13.028 6.32588 0 -13.0611 6.42514 0 -13.1053 6.52026 0 -13.1743 6.63023 0 -13.2581 6.72996 0 -13.3549 6.81732 0 -13.4626 6.89083 0 -13.6333 6.96927 0 -13.8164 7.0131 0 -14.0047 7.02048 0 -14.191 6.99149 0 -14.3685 6.92713 0 -14.5294 6.83008 0 -14.6675 6.70378 0 -14.7774 6.55316 0 -14.8548 6.38392 0 -14.896 6.20234 0 -5.09283 6.89442 0 -5.23807 6.89082 0 -5.38132 6.86323 0 -5.51925 6.81253 0 -5.56197 6.71192 0 -5.6034 6.61085 0 -5.64499 6.50974 0 -5.68749 6.4081 0 -5.73104 6.3051 0 -5.77559 6.20067 0 -5.82097 6.09611 0 -5.86694 5.99204 0 -5.91313 5.8887 0 -5.9582 5.78602 0 -5.93261 5.65844 0 -5.86274 5.57418 0 -5.79226 5.49235 0 -5.72716 5.41634 0 -5.66131 5.33938 0 -5.59338 5.26291 0 -5.45011 5.21408 0 -5.32207 5.23201 0 -5.19589 5.24971 0 -5.07166 5.26754 0 -4.9497 5.28365 0 -4.829 5.29936 0 -4.70821 5.31604 0 -4.59958 5.38571 0 -4.55829 5.47889 0 -4.51892 5.57234 0 -4.47257 5.68292 0 -4.42651 5.79274 0 -4.38028 5.90202 0 -4.33465 6.01074 0 -4.28792 6.11857 0 -4.24369 6.22694 0 -4.30244 6.37587 0 -4.38585 6.51151 0 -4.46239 6.60209 0 -4.5494 6.68248 0 -4.64525 6.75124 0 -4.74879 6.80751 0 -4.85913 6.85077 0 -4.97448 6.88 0 -10.1021 -7.95755 0 -10.0184 -7.88181 0 -9.94695 -7.79467 0 -9.8894 -7.69803 0 -9.9092 -7.61145 0 -9.93083 -7.52551 0 -9.95298 -7.4399 0 -9.97591 -7.35456 0 -9.99974 -7.26943 0 -10.0245 -7.18441 0 -10.0501 -7.09952 0 -10.0765 -7.01484 0 -10.1034 -6.9304 0 -10.1306 -6.84626 0 -10.1579 -6.76242 0 -10.2319 -6.71747 0 -10.3115 -6.68394 0 -10.4424 -6.7063 0 -10.5712 -6.73222 0 -10.6983 -6.76069 0 -10.8244 -6.79156 0 -10.9497 -6.8249 0 -11.0747 -6.86106 0 -11.1992 -6.90208 0 -11.2769 -7.03104 0 -11.3268 -7.17389 0 -11.3466 -7.32492 0 -11.3413 -7.4392 0 -11.3192 -7.5515 0 -11.2811 -7.65913 0 -11.2279 -7.75973 0 -11.1608 -7.85118 0 -11.081 -7.93159 0 -11.0219 -7.97806 0 -10.9585 -8.01864 0 -10.8212 -8.08023 0 -10.674 -8.11385 0 -10.5226 -8.11803 0 -10.3727 -8.09266 0 -10.2307 -8.03854 0 -12.5283 0.777076 0 -12.5821 0.858862 0 -12.6669 0.907439 0 -12.7571 0.937761 0 -12.8484 0.936313 0 -12.9385 0.934585 0 -13.0341 0.934346 0 -13.1278 0.93578 0 -13.2231 0.937495 0 -13.3216 0.942204 0 -13.4173 0.946733 0 -13.5105 0.951297 0 -13.6021 0.955156 0 -13.6922 0.956907 0 -13.7667 0.882173 0 -13.8078 0.784745 0 -13.8433 0.686963 0 -13.8874 0.554288 0 -13.9258 0.437159 0 -13.8877 0.258977 0 -13.8086 0.095563 0 -13.7476 -0.0235068 0 -13.654 -0.123544 0 -13.5643 -0.147845 0 -13.476 -0.171063 0 -13.3894 -0.194758 0 -13.3046 -0.222024 0 -13.2174 -0.249086 0 -13.1267 -0.276914 0 -12.9467 -0.331253 0 -12.8554 -0.358346 0 -12.7609 -0.384478 0 -12.6553 -0.343709 0 -12.5559 -0.29111 0 -12.4666 -0.222469 0 -12.3917 -0.138389 0 -12.3313 -0.0441301 0 -12.2861 0.0581699 0 -12.2587 0.196857 0 -12.2595 0.337781 0 -12.3254 0.452124 0 -12.3941 0.564817 0 -12.4613 0.67217 0 -6.63153 -6.70706 0 -6.59743 -6.533 0 -6.58731 -6.35858 0 -6.60829 -6.18451 0 -6.69499 -6.10131 0 -6.78731 -6.01549 0 -6.87365 -5.93592 0 -6.95423 -5.85978 0 -7.03756 -5.7718 0 -7.12333 -5.68583 0 -7.21154 -5.59836 0 -7.30435 -5.50428 0 -7.3858 -5.41706 0 -7.52627 -5.38693 0 -7.6734 -5.37964 0 -7.82356 -5.39452 0 -7.96411 -5.44098 0 -8.04294 -5.51592 0 -8.12169 -5.58774 0 -8.20024 -5.66062 0 -8.27737 -5.73306 0 -8.35765 -5.80529 0 -8.43957 -5.88036 0 -8.52011 -5.95642 0 -8.59979 -6.03304 0 -8.68122 -6.11017 0 -8.76253 -6.18879 0 -8.78549 -6.31233 0 -8.73893 -6.43233 0 -8.69383 -6.55592 0 -8.65017 -6.68135 0 -8.60913 -6.8081 0 -8.57128 -6.93563 0 -8.54188 -7.04391 0 -8.47903 -7.14796 0 -8.40693 -7.24417 0 -8.32723 -7.33065 0 -8.24149 -7.40549 0 -8.15045 -7.46678 0 -8.05427 -7.51306 0 -7.95318 -7.54452 0 -7.84798 -7.56351 0 -7.74014 -7.57328 0 -7.63113 -7.57484 0 -7.52233 -7.56546 0 -7.34655 -7.51932 0 -7.18145 -7.43577 0 -7.02723 -7.3289 0 -6.88924 -7.20161 0 -6.77802 -7.05303 0 -6.69181 -6.8905 0 -9.14795 0.949771 0 -9.09858 1.04667 0 -9.10894 1.17836 0 -9.18402 1.2631 0 -9.26991 1.35265 0 -9.34765 1.43436 0 -9.41683 1.50879 0 -9.48716 1.58488 0 -9.56234 1.66467 0 -9.6443 1.74998 0 -9.72919 1.83567 0 -9.81471 1.91661 0 -9.90468 1.98962 0 -9.99322 2.06161 0 -10.114 2.06012 0 -10.2293 2.04172 0 -10.3176 1.97928 0 -10.4342 1.89358 0 -10.5533 1.80588 0 -10.6508 1.65228 0 -10.7164 1.48079 0 -10.7207 1.283 0 -10.7227 1.1849 0 -10.7239 1.0876 0 -10.7246 0.991386 0 -10.7245 0.896868 0 -10.7244 0.802742 0 -10.7246 0.708166 0 -10.7252 0.612863 0 -10.7236 0.517173 0 -10.6432 0.446464 0 -10.5557 0.383734 0 -10.4625 0.330818 0 -10.3641 0.287904 0 -10.201 0.294053 0 -10.1093 0.297295 0 -10.0187 0.2974 0 -9.92819 0.295313 0 -9.83712 0.290232 0 -9.69415 0.276296 0 -9.5507 0.25842 0 -9.45404 0.307176 0 -9.37064 0.371545 0 -9.29905 0.453564 0 -9.27188 0.5707 0 -9.23512 0.699179 0 -9.19469 0.82805 0 -4.24085 -0.519439 0 -4.26474 -0.384965 0 -4.30661 -0.254792 0 -4.36632 -0.130721 0 -4.47978 -0.0932614 0 -4.59193 -0.0518557 0 -4.70152 -0.00654164 0 -4.80825 0.0417549 0 -4.9138 0.0903726 0 -5.02185 0.139662 0 -5.13244 0.191399 0 -5.2428 0.242857 0 -5.35198 0.296077 0 -5.46078 0.352908 0 -5.57652 0.331286 0 -5.6884 0.294469 0 -5.79299 0.24346 0 -5.82009 0.149292 0 -5.87626 -0.0362986 0 -5.94119 -0.220709 0 -6.01012 -0.390835 0 -6.08831 -0.560097 0 -6.07475 -0.666669 0 -6.01627 -0.754116 0 -5.95925 -0.842997 0 -5.90438 -0.935097 0 -5.84601 -1.03917 0 -5.78899 -1.14331 0 -5.73244 -1.24744 0 -5.67609 -1.35144 0 -5.57557 -1.44256 0 -5.46752 -1.52283 0 -5.36496 -1.5408 0 -5.26382 -1.557 0 -5.16404 -1.5729 0 -5.06511 -1.58822 0 -4.96696 -1.60243 0 -4.86253 -1.56521 0 -4.76262 -1.51772 0 -4.6679 -1.46018 0 -4.57999 -1.39321 0 -4.50054 -1.31775 0 -4.43055 -1.2347 0 -4.37068 -1.14488 0 -4.31043 -1.02421 0 -4.26763 -0.897837 0 -4.24322 -0.773191 0 -4.23449 -0.646304 0 -4.08973 4.73377 0 -4.00753 4.63696 0 -3.8856 4.60206 0 -3.7843 4.64164 0 -3.68503 4.68466 0 -3.58696 4.72932 0 -3.48923 4.77579 0 -3.39209 4.82373 0 -3.29605 4.87281 0 -3.20072 4.92373 0 -3.10541 4.97507 0 -3.01153 5.02593 0 -2.91842 5.07669 0 -2.82725 5.12953 0 -2.79892 5.26916 0 -2.79285 5.41129 0 -2.80854 5.55133 0 -2.83134 5.64511 0 -2.8636 5.73678 0 -2.90517 5.82596 0 -2.95702 5.91121 0 -3.01819 5.99227 0 -3.08831 6.06716 0 -3.16673 6.1335 0 -3.25112 6.19163 0 -3.34209 6.23919 0 -3.4374 6.2774 0 -3.53631 6.30499 0 -3.63727 6.3226 0 -3.73944 6.33001 0 -3.84212 6.32738 0 -3.94402 6.3153 0 -4.04391 6.29317 0 -4.14078 6.26113 0 -4.23366 6.21941 0 -4.27744 6.11778 0 -4.32158 6.01594 0 -4.36505 5.91249 0 -4.40915 5.80827 0 -4.4534 5.70289 0 -4.49768 5.59723 0 -4.54212 5.49151 0 -4.58724 5.38551 0 -4.56357 5.26653 0 -4.48254 5.17595 0 -4.4025 5.0868 0 -4.3237 4.99879 0 -4.24534 4.91062 0 -4.16689 4.82234 0 -13.5266 -3.89013 0 -13.4318 -3.84041 0 -13.3364 -3.7908 0 -13.2615 -3.71012 0 -13.2019 -3.61801 0 -13.1918 -3.52238 0 -13.1822 -3.42547 0 -13.1709 -3.32849 0 -13.1592 -3.23268 0 -13.1476 -3.13695 0 -13.1317 -3.04337 0 -13.1164 -2.95139 0 -13.0898 -2.86375 0 -13.0623 -2.77131 0 -13.0766 -2.66461 0 -13.1084 -2.56034 0 -13.1644 -2.48447 0 -13.2396 -2.37218 0 -13.3123 -2.2526 0 -13.3807 -2.12494 0 -13.4412 -1.9931 0 -13.5754 -1.88251 0 -13.7557 -1.85593 0 -13.9366 -1.82971 0 -14.0896 -1.89726 0 -14.2263 -1.99097 0 -14.3416 -2.10889 0 -14.4334 -2.24797 0 -14.5009 -2.39956 0 -14.5406 -2.55623 0 -14.5514 -2.71566 0 -14.5254 -2.87646 0 -14.4644 -3.03491 0 -14.3803 -3.11363 0 -14.2571 -3.23408 0 -14.1348 -3.35517 0 -14.0168 -3.47711 0 -13.9014 -3.59808 0 -13.7916 -3.72124 0 -13.6835 -3.84574 0 -7.36412 5.0617 0 -7.34611 4.90791 0 -7.30747 4.75863 0 -7.24529 4.61608 0 -7.14388 4.55977 0 -7.04127 4.50337 0 -6.93985 4.44457 0 -6.83819 4.38082 0 -6.74068 4.31052 0 -6.65116 4.23877 0 -6.56375 4.16843 0 -6.47418 4.09515 0 -6.38988 4.01875 0 -6.31286 3.93881 0 -6.20471 3.92589 0 -6.11431 3.99085 0 -6.02407 4.05638 0 -5.91529 4.1335 0 -5.80741 4.27326 0 -5.76471 4.43328 0 -5.72488 4.59575 0 -5.68369 4.75727 0 -5.63577 4.91824 0 -5.58523 5.08071 0 -5.60716 5.26049 0 -5.67258 5.33722 0 -5.7379 5.41356 0 -5.83831 5.53042 0 -5.93838 5.64726 0 -6.07634 5.71602 0 -6.21458 5.72353 0 -6.35262 5.73182 0 -6.49061 5.74095 0 -6.6291 5.75191 0 -6.76761 5.72365 0 -6.89199 5.59632 0 -7.01342 5.46822 0 -7.13267 5.33723 0 -7.24967 5.20194 0 -8.53884 6.61476 0 -8.55139 6.71961 0 -8.58318 6.82014 0 -8.66764 6.87006 0 -8.75387 6.91739 0 -8.841 6.96207 0 -8.9289 7.00423 0 -9.01767 7.04399 0 -9.10744 7.08139 0 -9.19809 7.11636 0 -9.28964 7.14885 0 -9.38224 7.17885 0 -9.4759 7.20627 0 -9.57087 7.23053 0 -9.67512 7.21204 0 -9.77428 7.17453 0 -9.86411 7.11911 0 -9.95373 6.98988 0 -10.0385 6.85627 0 -10.1182 6.71852 0 -10.1918 6.57757 0 -10.2596 6.43316 0 -10.2548 6.2354 0 -10.2138 6.13817 0 -10.1703 6.04272 0 -10.1253 5.94879 0 -10.0775 5.85535 0 -9.91398 5.82989 0 -9.8057 5.81497 0 -9.69698 5.80249 0 -9.58754 5.79221 0 -9.47757 5.78446 0 -9.36715 5.77923 0 -9.25609 5.77615 0 -9.1453 5.77574 0 -9.03474 5.77826 0 -8.9262 5.81 0 -8.82524 5.86092 0 -8.77548 5.9479 0 -8.73128 6.03741 0 -8.68019 6.14967 0 -8.63469 6.26383 0 -8.59578 6.37925 0 -8.56393 6.4966 0 -7.58697 -1.82411 0 -7.52148 -1.73996 0 -7.47282 -1.64753 0 -7.45301 -1.55267 0 -7.4324 -1.45586 0 -7.41103 -1.35733 0 -7.38866 -1.25646 0 -7.36565 -1.15331 0 -7.34592 -1.04601 0 -7.32557 -0.935542 0 -7.30499 -0.821472 0 -7.2823 -0.70367 0 -7.26152 -0.590873 0 -7.28611 -0.499593 0 -7.33715 -0.419519 0 -7.39595 -0.335433 0 -7.45732 -0.250444 0 -7.51948 -0.167716 0 -7.58086 -0.0896193 0 -7.66861 -0.0314045 0 -7.76822 0.0155924 0 -7.87624 0.056616 0 -7.9841 0.088437 0 -8.14865 0.0544443 0 -8.30847 0.024715 0 -8.47466 -0.00451067 0 -8.65518 -0.0356698 0 -8.81854 -0.0596132 0 -8.91631 -0.114713 0 -9.00158 -0.183105 0 -9.06856 -0.266064 0 -9.11824 -0.354764 0 -9.14205 -0.455087 0 -9.16615 -0.564805 0 -9.19396 -0.680459 0 -9.22527 -0.797226 0 -9.25444 -0.892956 0 -9.28356 -0.989155 0 -9.23794 -1.07122 0 -9.18917 -1.15487 0 -9.13918 -1.24011 0 -9.08864 -1.3254 0 -9.03678 -1.41094 0 -8.98398 -1.49582 0 -8.93 -1.58041 0 -8.87494 -1.66562 0 -8.81971 -1.75095 0 -8.76438 -1.83715 0 -8.61991 -1.83861 0 -8.47529 -1.83831 0 -8.33297 -1.83785 0 -8.19092 -1.83694 0 -8.04622 -1.83532 0 -7.89736 -1.83282 0 -7.74313 -1.82916 0 -11.7649 -6.30192 0 -11.7842 -6.18855 0 -11.8059 -6.06291 0 -11.8299 -5.93874 0 -11.9488 -5.82328 0 -12.0851 -5.72866 0 -12.2135 -5.74731 0 -12.3424 -5.76294 0 -12.4716 -5.77616 0 -12.6012 -5.78684 0 -12.7301 -5.79362 0 -12.8581 -5.7949 0 -12.9852 -5.79327 0 -13.111 -5.78893 0 -13.2358 -5.78221 0 -13.359 -5.77312 0 -13.4653 -5.8479 0 -13.5172 -5.9615 0 -13.5855 -6.10787 0 -13.6554 -6.25196 0 -13.6464 -6.35378 0 -13.6266 -6.45456 0 -13.5967 -6.55263 0 -13.5562 -6.64739 0 -13.5054 -6.73772 0 -13.4459 -6.82218 0 -13.3807 -6.89643 0 -13.3084 -6.96382 0 -13.2303 -7.02393 0 -13.1463 -7.07617 0 -13.0574 -7.11992 0 -12.9648 -7.15498 0 -12.8248 -7.19031 0 -12.6807 -7.2063 0 -12.5351 -7.20157 0 -12.3903 -7.1765 0 -12.2495 -7.13148 0 -12.1163 -7.06721 0 -11.9938 -6.98501 0 -11.8835 -6.88578 0 -11.7884 -6.77156 0 -11.7102 -6.64459 0 -11.727 -6.5296 0 -11.7459 -6.4155 0 -11.7903 -5.4379 0 -11.6963 -5.49996 0 -11.5922 -5.54273 0 -11.4814 -5.56472 0 -11.3816 -5.53613 0 -11.2828 -5.50369 0 -11.1847 -5.46839 0 -11.0875 -5.43024 0 -10.9909 -5.38822 0 -10.898 -5.33929 0 -10.8073 -5.28775 0 -10.7178 -5.23378 0 -10.6288 -5.17723 0 -10.5413 -5.11627 0 -10.5064 -4.99205 0 -10.5385 -4.87781 0 -10.5681 -4.77768 0 -10.5975 -4.67758 0 -10.6268 -4.57846 0 -10.6557 -4.48105 0 -10.6846 -4.38435 0 -10.7138 -4.28792 0 -10.7574 -4.14805 0 -10.8025 -4.0095 0 -10.8494 -3.87016 0 -10.9003 -3.72932 0 -11.0468 -3.61192 0 -11.228 -3.57418 0 -11.3805 -3.547 0 -11.5296 -3.52357 0 -11.6804 -3.6092 0 -11.8031 -3.72684 0 -11.9212 -3.8514 0 -12.0298 -3.97306 0 -12.0212 -4.09999 0 -12.012 -4.22342 0 -12.0046 -4.348 0 -11.998 -4.47364 0 -11.9909 -4.59997 0 -11.9823 -4.72804 0 -11.9708 -4.8575 0 -11.956 -4.98744 0 -11.9378 -5.11681 0 -11.9072 -5.31007 0 -11.5862 5.09688 0 -11.7107 5.13515 0 -11.8501 5.12114 0 -11.9267 5.0349 0 -12.0024 4.94731 0 -12.0763 4.85926 0 -12.1489 4.7704 0 -12.2203 4.6804 0 -12.2908 4.58968 0 -12.3591 4.49805 0 -12.4257 4.40562 0 -12.4898 4.31328 0 -12.552 4.22088 0 -12.6109 4.1264 0 -12.5929 3.98107 0 -12.5486 3.84095 0 -12.4787 3.71052 0 -12.3774 3.58643 0 -12.2542 3.48467 0 -12.1128 3.40926 0 -11.9811 3.425 0 -11.849 3.44401 0 -11.7174 3.465 0 -11.5873 3.49419 0 -11.457 3.52649 0 -11.3264 3.56101 0 -11.2257 3.59203 0 -11.1257 3.62636 0 -11.0258 3.66397 0 -10.9254 3.70359 0 -10.9477 3.79819 0 -10.9688 3.89285 0 -10.9874 3.98775 0 -11.0043 4.08333 0 -11.0199 4.17933 0 -11.0341 4.2753 0 -11.047 4.37148 0 -11.0587 4.46756 0 -11.0693 4.56348 0 -11.0788 4.65927 0 -11.0872 4.75517 0 -11.0972 4.85098 0 -11.1768 4.94469 0 -11.2775 4.98729 0 -11.3795 5.02613 0 -11.4823 5.06254 0 -10.356 0.277298 0 -10.4346 0.203276 0 -10.497 0.115681 0 -10.541 0.0168351 0 -10.525 -0.0817282 0 -10.5073 -0.181917 0 -10.4891 -