<VTKFile type="PolyData" version="0.1" byte_order="LittleEndian">
    <PolyData>
        <Piece NumberOfPoints="1188" NumberOfPolys="27">
            <CellData>
                <DataArray type="Float64" Name="area" format="ascii">
3.16412 1.95024 1.98899 2.37599 3.12484 1.84671 2.21827 1.57968 2.13452 2.66177 2.09769 1.57855 3.53919 2.56684 2.86451 2.29799 2.59169 2.66627 2.5949 2.40653 2.07742 1.91669 1.96368 1.76381 2.20838 1.60095 1.36293 
                </DataArray>
                <DataArray type="Float64" Name="c1" format="ascii">
0.0613507 0.0286513 0.0316248 0.0326573 0.0265946 0.014815 0.0370251 0.0484961 0.0165002 0.0309745 0.016951 0.0198612 0.0234626 0.0414166 0.0512831 0.0383225 0.0212123 0.0449641 0.0237985 0.0445226 0.0163112 0.0195151 0.0224943 0.0309667 0.0240233 0.0185005 0.0479292 
                </DataArray>
                <DataArray type="Float64" Name="c2" format="ascii">
0.508235 0.581623 0.5162 0.58042 0.655626 0.770117 0.463868 0.442052 0.735475 0.524782 0.610276 0.733258 0.515795 0.575277 0.454005 0.464097 0.667708 0.495994 0.605988 0.50509 0.702979 0.626399 0.666585 0.60287 0.561715 0.741205 0.429523 
                </DataArray>
                <DataArray type="Float64" Name="grad_c1" NumberOfComponents="2" format="ascii">
0.00282657 -0.000934415 0.0054889 0.00518804 0.00290486 0.00726201 0.00639247 -0.00753583 0.00682268 -0.00112692 0.00231028 0.00147918 0.000805907 0.00752163 0.00189207 -0.00408446 0.00282449 -0.00198622 0.00228928 -0.00724229 0.00151786 0.00298265 0.0041225 0.00024561 0.0014869 0.00479942 0.0147185 -0.0023548 -0.00521754 0.00370764 0.00140552 -0.00704089 0.00415343 0.0023367 -0.00109045 -0.0121521 0.00316295 -0.00457046 0.00340355 0.0132514 0.00242736 0.00208866 0.00261336 0.00314387 0.00432064 -0.00317813 0.00832877 0.00348232 0.00288323 0.00480387 0.00350013 0.000874307 0.00567033 -0.00666676 
                </DataArray>
                <DataArray type="Float64" Name="grad_c2" NumberOfComponents="2" format="ascii">
-0.0399564 0.00479007 -0.0501187 -0.00256967 -0.0348927 -0.00802426 -0.0479734 0.00982845 -0.0626933 0.0110801 -0.0695278 -0.00519658 -0.0290267 -0.0078871 -0.0208922 0.00871459 -0.0561678 0.00303374 -0.0346997 0.00911883 -0.0517285 -0.0161901 -0.0706799 0.0128781 -0.0341324 -0.0144293 -0.0485026 0.00713228 -0.0262312 0.00212456 -0.0286681 0.0111016 -0.0648417 -0.0036349 -0.0334155 0.0126613 -0.0493294 0.015588 -0.0375068 0.00109592 -0.0627293 -0.0147929 -0.0589859 -0.0177349 -0.057156 0.00528992 -0.0538386 0.00386754 -0.0439106 -0.011802 -0.0809823 -0.00539485 -0.0262661 0.00714131 
                </DataArray>
                <DataArray type="Float64" Name="D1" format="ascii">
20.1884 47.8887 46.4257 29.5543 23.66 26.9155 31.6639 27.4076 30.8932 41.7876 28.6995 27.0936 25.8601 46.5973 31.4408 35.0437 37.913 16.8386 22.4411 28.3868 31.9534 36.3592 34.0147 20.1184 48.0826 38.3651 47.2917 
                </DataArray>
                <DataArray type="Float64" Name="D2" format="ascii">
28.1376 29.476 55.2662 32.7903 26.1502 20.7843 31.7025 33.9204 29.999 25.2094 41.1061 34.7848 33.2469 38.6467 34.7848 56.3213 22.3241 25.0052 21.7317 17.7694 45.6173 35.0981 35.203 30.2212 14.9015 18.5881 34.7508 
                </DataArray>
                <DataArray type="Float64" Name="k1" format="ascii">
0.910378 0.571072 1.14395 1.54432 0.926629 1.25016 0.575564 1.55852 0.945503 0.860941 0.791226 0.616893 1.05281 1.17647 0.817944 0.63907 0.482176 1.56031 0.91796 0.830993 0.79104 0.957837 0.807719 1.03161 1.08356 0.877557 1.01713 
                </DataArray>
                <DataArray type="Float64" Name="k2" format="ascii">
0.1 0.1 0.1 0.1 0.1 0.1 0.1 0.1 0.1 0.1 0.1 0.1 0.1 0.1 0.1 0.1 0.1 0.1 0.1 0.1 0.1 0.1 0.1 0.1 0.1 0.1 0.1 
                </DataArray>
                <DataArray type="Float64" Name="k3" format="ascii">
1 1 1 1 1 1 1 1 1 1 1 1 1 1 1 1 1 1 1 1 1 1 1 1 1 1 1 
                </DataArray>
                <DataArray type="Int64" Name="cell_type" format="ascii">
0 1 1 1 1 1 1 1 1 1 1 1 1 1 1 1 1 1 1 1 1 1 1 1 1 1 1 
                </DataArray>
                <DataArray type="Float64" Name="perimeter" format="ascii">
6.6221 5.24331 5.31642 5.69099 6.58435 4.93064 5.43678 4.62639 5.24834 5.97045 5.29822 4.62775 6.94013 6.06415 6.34973 5.46491 5.94121 6.06643 5.85056 5.98186 5.43449 5.28721 5.14587 4.99913 5.55386 4.63401 4.25556 
                </DataArray>
                <DataArray type="Float64" Name="neighbors" format="ascii">
4 6 5 6 5 2 4 4 1 4 3 2 4 4 5 4 6 6 3 6 3 5 4 5 5 2 2 
                </DataArray>
            </CellData>
            <Points>
                <DataArray type="Float64" Name="Points" NumberOfComponents="3" format="ascii">
-5.07705 -0.224998 0 -4.93699 -0.221919 0 -4.79699 -0.149904 0 -4.74031 -0.0317249 0 -4.68931 0.0906153 0 -4.64694 0.214054 0 -4.60965 0.338664 0 -4.57041 0.464777 0 -4.53391 0.592378 0 -4.50477 0.721999 0 -4.47715 0.852861 0 -4.45143 0.982265 0 -4.43197 1.11072 0 -4.41981 1.2406 0 -4.49691 1.37073 0 -4.63948 1.44534 0 -4.7851 1.52106 0 -4.88406 1.57229 0 -4.98282 1.62213 0 -5.08045 1.66986 0 -5.17749 1.7154 0 -5.27589 1.7598 0 -5.3754 1.80343 0 -5.47287 1.84541 0 -5.5678 1.8843 0 -5.67688 1.86589 0 -5.78435 1.83389 0 -5.91909 1.77116 0 -6.03926 1.68088 0 -6.0705 1.55877 0 -6.09913 1.43765 0 -6.12812 1.31594 0 -6.15645 1.19331 0 -6.18359 1.07098 0 -6.21026 0.948202 0 -6.23649 0.824927 0 -6.26228 0.700693 0 -6.28784 0.575162 0 -6.31294 0.449227 0 -6.33734 0.323456 0 -6.36113 0.197152 0 -6.31167 0.0676698 0 -6.23938 -0.0503243 0 -6.11429 -0.181142 0 -5.9502 -0.196958 0 -5.83268 -0.206836 0 -5.714 -0.215959 0 -5.55399 -0.223245 0 -5.39413 -0.226267 0 -5.23536 -0.226681 0 -6.53289 -0.989839 0 -6.59223 -0.886983 0 -6.70613 -0.813144 0 -6.80377 -0.825056 0 -6.90059 -0.839912 0 -6.99614 -0.855468 0 -7.09144 -0.871709 0 -7.18677 -0.888756 0 -7.28229 -0.906866 0 -7.3772 -0.926005 0 -7.47142 -0.946112 0 -7.56605 -0.967229 0 -7.6619 -0.989291 0 -7.75736 -1.01299 0 -7.83723 -1.07961 0 -7.90603 -1.15692 0 -7.96148 -1.24557 0 -7.97825 -1.40107 0 -7.99305 -1.55688 0 -8.00475 -1.71295 0 -8.0133 -1.86761 0 -8.01959 -2.02354 0 -8.02244 -2.17905 0 -7.90513 -2.30296 0 -7.75132 -2.34931 0 -7.65112 -2.38011 0 -7.55074 -2.41047 0 -7.42369 -2.38575 0 -7.33404 -2.3265 0 -7.24375 -2.26691 0 -7.15309 -2.20814 0 -7.06166 -2.15031 0 -6.96827 -2.09659 0 -6.83997 -2.02562 0 -6.70895 -1.95844 0 -6.57517 -1.89422 0 -6.50881 -1.81676 0 -6.47383 -1.73019 0 -6.40231 -1.55621 0 -6.3646 -1.46938 0 -6.32508 -1.3831 0 -6.39151 -1.25044 0 -6.46175 -1.1203 0 -6.45392 -1.7077 0 -6.49719 -1.81713 0 -6.47534 -1.93608 0 -6.41136 -2.02262 0 -6.34735 -2.10927 0 -6.28212 -2.1971 0 -6.21761 -2.28447 0 -6.15276 -2.37198 0 -6.08714 -2.46027 0 -6.02202 -2.54821 0 -5.95696 -2.63607 0 -5.89179 -2.72386 0 -5.82618 -2.812 0 -5.76046 -2.89999 0 -5.66885 -2.95079 0 -5.5692 -2.98087 0 -5.46588 -2.9898 0 -5.32937 -2.9366 0 -5.20257 -2.87315 0 -5.08198 -2.80357 0 -4.96519 -2.72832 0 -4.85148 -2.64719 0 -4.7418 -2.55815 0 -4.68999 -2.38604 0 -4.72069 -2.24514 0 -4.74543 -2.14517 0 -4.77445 -2.0456 0 -4.80797 -1.94703 0 -4.84526 -1.85111 0 -4.88486 -1.75653 0 -4.92786 -1.66241 0 -5.03922 -1.6187 0 -5.15205 -1.57943 0 -5.26541 -1.54397 0 -5.3793 -1.51108 0 -5.49473 -1.48134 0 -5.61042 -1.45707 0 -5.72667 -1.4371 0 -5.84442 -1.41991 0 -5.96174 -1.4058 0 -6.07946 -1.39494 0 -6.19636 -1.38778 0 -6.31285 -1.38394 0 -6.35919 -1.48174 0 -6.40251 -1.58267 0 -5.9111 3.22549 0 -5.98335 3.34149 0 -6.05605 3.45665 0 -6.17038 3.52737 0 -6.27878 3.51167 0 -6.38756 3.49443 0 -6.49729 3.47699 0 -6.60732 3.45926 0 -6.71697 3.44146 0 -6.8264 3.42402 0 -6.93561 3.40654 0 -7.04449 3.389 0 -7.15304 3.37121 0 -7.26149 3.35306 0 -7.37016 3.33456 0 -7.46385 3.26677 0 -7.49101 3.1625 0 -7.52662 3.01989 0 -7.56361 2.87794 0 -7.59939 2.73601 0 -7.63403 2.59363 0 -7.6693 2.45225 0 -7.63808 2.35237 0 -7.59539 2.25773 0 -7.51936 2.17474 0 -7.43635 2.10797 0 -7.31278 2.04768 0 -7.1827 2.00532 0 -7.06602 2.01023 0 -6.95083 2.01533 0 -6.83719 2.02007 0 -6.72282 2.01925 0 -6.60821 2.01875 0 -6.49258 2.01835 0 -6.37658 2.01447 0 -6.25913 2.01279 0 -6.12135 2.09509 0 -5.99595 2.19436 0 -5.8879 2.30727 0 -5.79752 2.43314 0 -5.75636 2.58107 0 -5.71544 2.72859 0 -5.71785 2.83254 0 -5.73195 2.93505 0 -5.82078 3.08037 0 -7.96387 0.257707 0 -7.8058 0.323811 0 -7.68668 0.445104 0 -7.67498 0.574542 0 -7.6623 0.7041 0 -7.64654 0.832489 0 -7.62768 0.960333 0 -7.60585 1.08827 0 -7.58129 1.21475 0 -7.55388 1.34043 0 -7.52364 1.46543 0 -7.49039 1.59017 0 -7.45382 1.7158 0 -7.41486 1.84246 0 -7.45025 2.00066 0 -7.51139 2.15161 0 -7.60879 2.25767 0 -7.70128 2.31106 0 -7.79776 2.35414 0 -7.97725 2.34371 0 -8.15553 2.33398 0 -8.33448 2.32591 0 -8.51326 2.3197 0 -8.69149 2.31405 0 -8.78672 2.26105 0 -8.87634 2.1978 0 -8.95853 2.12568 0 -9.03307 2.04601 0 -9.10745 1.94625 0 -9.16935 1.83892 0 -9.21793 1.72587 0 -9.25249 1.60793 0 -9.26936 1.51116 0 -9.27754 1.41375 0 -9.27561 1.31666 0 -9.26464 1.21915 0 -9.21861 1.1464 0 -9.17266 1.07315 0 -9.08455 0.92578 0 -9.00007 0.775043 0 -8.91977 0.621403 0 -8.84466 0.466938 0 -8.77148 0.310105 0 -8.66716 0.245643 0 -8.55631 0.189882 0 -8.44004 0.144001 0 -8.32098 0.109998 0 -8.23147 0.145144 0 -8.14205 0.183092 0 -10.2593 -3.31859 0 -10.1327 -3.33878 0 -10.004 -3.33919 0 -9.87765 -3.31924 0 -9.82538 -3.22805 0 -9.77175 -3.13724 0 -9.71751 -3.04712 0 -9.66335 -2.95705 0 -9.60875 -2.86726 0 -9.5538 -2.77776 0 -9.49824 -2.68889 0 -9.44239 -2.60041 0 -9.38588 -2.51242 0 -9.32893 -2.42541 0 -9.32712 -2.31182 0 -9.39631 -2.21553 0 -9.46506 -2.1188 0 -9.52506 -2.03932 0 -9.58561 -1.95988 0 -9.64797 -1.882 0 -9.71114 -1.80399 0 -9.80852 -1.75918 0 -9.91093 -1.7278 0 -10.0165 -1.71109 0 -10.1234 -1.70873 0 -10.2297 -1.7213 0 -10.3337 -1.74836 0 -10.4336 -1.7901 0 -10.5276 -1.84505 0 -10.6139 -1.91184 0 -10.6907 -1.9897 0 -10.756 -2.07726 0 -10.809 -2.17275 0 -10.8483 -2.27455 0 -10.8734 -2.38017 0 -10.8844 -2.50271 0 -10.8775 -2.62559 0 -10.8518 -2.74608 0 -10.8093 -2.86255 0 -10.7493 -2.9716 0 -10.6746 -3.06911 0 -10.5859 -3.15453 0 -10.4856 -3.22558 0 -10.3763 -3.28045 0 -4.03888 -0.811743 0 -4.15467 -0.803032 0 -4.26073 -0.842069 0 -4.36274 -0.889371 0 -4.41193 -0.969968 0 -4.46182 -1.05053 0 -4.51357 -1.1325 0 -4.56662 -1.21289 0 -4.62088 -1.29251 0 -4.67681 -1.37038 0 -4.73512 -1.44627 0 -4.79506 -1.52025 0 -4.85525 -1.59127 0 -4.91549 -1.6628 0 -4.85857 -1.7916 0 -4.80601 -1.92218 0 -4.76087 -2.05481 0 -4.73106 -2.15956 0 -4.70546 -2.26633 0 -4.68262 -2.37344 0 -4.63302 -2.46009 0 -4.57351 -2.53906 0 -4.48174 -2.58583 0 -4.38948 -2.63031 0 -4.2974 -2.67454 0 -4.20518 -2.71869 0 -4.03835 -2.69696 0 -3.87795 -2.64481 0 -3.72806 -2.56429 0 -3.59668 -2.45809 0 -3.48524 -2.3312 0 -3.39832 -2.18729 0 -3.33568 -2.02737 0 -3.29851 -1.8554 0 -3.29223 -1.67779 0 -3.31762 -1.5004 0 -3.37534 -1.33022 0 -3.46332 -1.17539 0 -3.55186 -1.06692 0 -3.65601 -0.967362 0 -3.77209 -0.883372 0 -3.89694 -0.820979 0 -2.62345 0.950937 0 -2.52626 1.03536 0 -2.44984 1.1216 0 -2.38381 1.21795 0 -2.33739 1.33116 0 -2.30969 1.45787 0 -2.36426 1.53681 0 -2.41607 1.60745 0 -2.46963 1.68894 0 -2.5285 1.77746 0 -2.58373 1.86329 0 -2.64306 1.9547 0 -2.70182 2.03911 0 -2.76433 2.12196 0 -2.8329 2.20972 0 -2.92504 2.26478 0 -3.01445 2.25875 0 -3.13533 2.25758 0 -3.27023 2.25617 0 -3.40381 2.24553 0 -3.53475 2.23303 0 -3.6426 2.14508 0 -3.70136 2.0247 0 -3.74933 1.91269 0 -3.81261 1.77718 0 -3.86985 1.63627 0 -3.89392 1.56138 0 -3.87685 1.46785 0 -3.77809 1.36819 0 -3.67455 1.26983 0 -3.59379 1.20324 0 -3.51806 1.14517 0 -3.44128 1.08769 0 -3.36373 1.02807 0 -3.28787 0.972312 0 -3.2085 0.919409 0 -3.12608 0.867241 0 -3.03704 0.815073 0 -2.89163 0.831567 0 -2.74358 0.882 0 -9.50465 2.87371 0 -9.3685 2.87812 0 -9.23463 2.905 0 -9.10669 2.95342 0 -9.05342 3.04179 0 -9.00167 3.13165 0 -8.95037 3.22168 0 -8.89959 3.31174 0 -8.8493 3.40173 0 -8.79927 3.49204 0 -8.74954 3.58262 0 -8.70003 3.67359 0 -8.65056 3.76527 0 -8.60287 3.85825 0 -8.63884 3.99305 0 -8.6958 4.12028 0 -8.77233 4.23652 0 -8.89114 4.36045 0 -9.03246 4.45812 0 -9.14544 4.50972 0 -9.26477 4.54424 0 -9.38779 4.56139 0 -9.51185 4.56109 0 -9.63468 4.5428 0 -9.75298 4.50688 0 -9.86488 4.45427 0 -9.96816 4.38608 0 -10.0604 4.30384 0 -10.14 4.20905 0 -10.2051 4.10352 0 -10.2539 3.9894 0 -10.2852 3.86981 0 -10.2988 3.74714 0 -10.2948 3.62388 0 -10.2728 3.50305 0 -10.2328 3.38692 0 -10.1767 3.278 0 -10.1059 3.17824 0 -10.0213 3.08954 0 -9.92502 3.01446 0 -9.8193 2.95401 0 -9.71793 2.91301 0 -9.61238 2.88622 0 -5.79944 3.0648 0 -5.72471 2.94506 0 -5.60314 2.88261 0 -5.48842 2.9145 0 -5.37411 2.94351 0 -5.26032 2.97032 0 -5.14628 2.99547 0 -5.03104 3.01921 0 -4.91361 3.04155 0 -4.79392 3.06217 0 -4.67421 3.0807 0 -4.55676 3.09742 0 -4.44197 3.113 0 -4.32988 3.12818 0 -4.23602 3.21385 0 -4.15145 3.317 0 -4.1096 3.44243 0 -4.06206 3.59335 0 -4.0897 3.77812 0 -4.14937 3.95353 0 -4.23814 4.11852 0 -4.32137 4.23315 0 -4.41799 4.33753 0 -4.52691 4.42904 0 -4.64648 4.50629 0 -4.77487 4.56775 0 -4.90993 4.61149 0 -5.04914 4.63606 0 -5.19001 4.64098 0 -5.32992 4.62634 0 -5.46623 4.59248 0 -5.62951 4.52366 0 -5.77813 4.42861 0 -5.90779 4.31075 0 -5.94607 4.14385 0 -5.98647 3.97744 0 -6.02892 3.81005 0 -6.07296 3.6414 0 -6.04937 3.46624 0 -5.96631 3.33297 0 -5.88288 3.19897 0 -6.60006 -3.84915 0 -6.73446 -3.8115 0 -6.86752 -3.76865 0 -7.02261 -3.76288 0 -7.11183 -3.81718 0 -7.20111 -3.87067 0 -7.29179 -3.92156 0 -7.38349 -3.96994 0 -7.4765 -4.01537 0 -7.56953 -4.05877 0 -7.6633 -4.10008 0 -7.75847 -4.13913 0 -7.85428 -4.17553 0 -7.95072 -4.20806 0 -7.9651 -4.33542 0 -7.96106 -4.46378 0 -7.93885 -4.59061 0 -7.87287 -4.77112 0 -7.76975 -4.93442 0 -7.63544 -5.07359 0 -7.53177 -5.14937 0 -7.41871 -5.20974 0 -7.29823 -5.25359 0 -7.17257 -5.28044 0 -7.04457 -5.29006 0 -6.91642 -5.28262 0 -6.79022 -5.2576 0 -6.66864 -5.21473 0 -6.55382 -5.15523 0 -6.44824 -5.08077 0 -6.3539 -4.9929 0 -6.27273 -4.89261 0 -6.20704 -4.78162 0 -6.15788 -4.66264 0 -6.12201 -4.51219 0 -6.11197 -4.35786 0 -6.1647 -4.23863 0 -6.21924 -4.11891 0 -6.27558 -4.00022 0 -6.43885 -3.89025 0 -10.3313 0.417178 0 -10.2889 0.300112 0 -10.2273 0.191424 0 -10.1479 0.0951879 0 -10.0483 0.0790442 0 -9.94777 0.0634299 0 -9.84836 0.0474663 0 -9.74799 0.03143 0 -9.64744 0.0159106 0 -9.54829 -0.00120119 0 -9.44879 -0.018984 0 -9.34966 -0.0363075 0 -9.25046 -0.0547992 0 -9.15019 -0.0726038 0 -9.04123 -0.00934494 0 -8.94462 0.071636 0 -8.86369 0.170262 0 -8.78542 0.312582 0 -8.85581 0.46727 0 -8.93028 0.620113 0 -8.97569 0.706991 0 -9.02152 0.793058 0 -9.06924 0.878208 0 -9.11796 0.96237 0 -9.16869 1.04719 0 -9.21957 1.12926 0 -9.27277 1.21086 0 -9.36728 1.25553 0 -9.46791 1.28602 0 -9.57209 1.30191 0 -9.67753 1.30252 0 -9.78177 1.28786 0 -9.88317 1.25908 0 -9.97879 1.21651 0 -10.0668 1.16019 0 -10.1463 1.09288 0 -10.2146 1.01444 0 -10.2704 0.925287 0 -10.3213 0.80386 0 -10.3479 0.676783 0 -10.3522 0.54613 0 -4.48081 -2.59739 0 -4.58264 -2.54712 0 -4.73996 -2.57094 0 -4.87197 -2.67602 0 -5.01388 -2.77374 0 -5.16109 -2.86276 0 -5.31253 -2.94059 0 -5.46715 -3.00104 0 -5.61999 -3.11855 0 -5.75202 -3.25712 0 -5.85441 -3.41388 0 -5.97037 -3.5639 0 -6.09427 -3.70828 0 -6.22527 -3.84268 0 -6.26224 -4.00388 0 -6.22189 -4.08944 0 -6.18209 -4.17608 0 -6.10366 -4.34975 0 -5.98754 -4.45874 0 -5.8586 -4.55238 0 -5.71872 -4.62758 0 -5.57052 -4.68634 0 -5.41607 -4.72543 0 -5.25824 -4.74441 0 -5.12621 -4.74532 0 -4.99432 -4.73243 0 -4.86503 -4.70583 0 -4.73982 -4.66519 0 -4.619 -4.61177 0 -4.50422 -4.54638 0 -4.3976 -4.46904 0 -4.29976 -4.38123 0 -4.21101 -4.28308 0 -4.13288 -4.17634 0 -4.06628 -4.06234 0 -4.01231 -3.94177 0 -3.9713 -3.81718 0 -3.94342 -3.68893 0 -3.92924 -3.55856 0 -3.92932 -3.42785 0 -3.94309 -3.30186 0 -3.97008 -3.1783 0 -4.01026 -3.05846 0 -4.06262 -2.94303 0 -4.12658 -2.83349 0 -4.20187 -2.73131 0 -4.34088 -2.66475 0 -7.02922 2.00198 0 -7.1769 1.99497 0 -7.29888 1.92532 0 -7.40721 1.83297 0 -7.44823 1.69959 0 -7.48709 1.56424 0 -7.52275 1.42719 0 -7.55503 1.28893 0 -7.58395 1.14945 0 -7.60929 1.0096 0 -7.63108 0.869784 0 -7.64922 0.729716 0 -7.66364 0.588935 0 -7.67464 0.447815 0 -7.58195 0.317542 0 -7.45704 0.248532 0 -7.33146 0.182297 0 -7.18663 0.108688 0 -7.03943 0.036861 0 -6.92111 -0.0188272 0 -6.80032 -0.0722722 0 -6.67844 -0.0344231 0 -6.56371 0.0242691 0 -6.46055 0.102023 0 -6.37261 0.197073 0 -6.35036 0.308333 0 -6.32865 0.420856 0 -6.30628 0.533857 0 -6.28341 0.64711 0 -6.2601 0.760471 0 -6.23656 0.872937 0 -6.21263 0.984358 0 -6.1887 1.09406 0 -6.16437 1.20338 0 -6.13886 1.31378 0 -6.11282 1.423 0 -6.08722 1.53148 0 -6.05065 1.68422 0 -6.09044 1.77268 0 -6.14015 1.85674 0 -6.19989 1.93362 0 -6.27083 2.00104 0 -6.4613 2.00683 0 -6.65173 2.0091 0 -6.8411 2.00997 0 -3.8832 1.45778 0 -3.99024 1.47352 0 -4.14659 1.41462 0 -4.31006 1.36055 0 -4.40821 1.24199 0 -4.42204 1.10994 0 -4.44153 0.981044 0 -4.46751 0.850287 0 -4.49513 0.719489 0 -4.52409 0.59058 0 -4.56069 0.462535 0 -4.59989 0.336534 0 -4.63729 0.211546 0 -4.68001 0.0870583 0 -4.73067 -0.0345509 0 -4.78533 -0.152323 0 -4.74548 -0.294637 0 -4.62243 -0.425355 0 -4.55421 -0.498576 0 -4.4863 -0.572916 0 -4.42026 -0.649996 0 -4.33744 -0.707921 0 -4.25061 -0.75414 0 -4.15931 -0.792745 0 -4.06984 -0.799356 0 -3.97994 -0.805429 0 -3.89139 -0.811037 0 -3.79629 -0.783534 0 -3.70538 -0.748656 0 -3.61882 -0.709242 0 -3.53787 -0.656825 0 -3.46167 -0.596253 0 -3.38622 -0.536881 0 -3.31673 -0.470645 0 -3.25446 -0.39395 0 -3.19969 -0.307412 0 -3.13754 -0.195974 0 -3.09011 -0.0837764 0 -3.05248 0.0236464 0 -3.02124 0.137804 0 -3.00007 0.253011 0 -2.98734 0.366833 0 -2.98506 0.482087 0 -2.99813 0.593126 0 -3.02053 0.703635 0 -3.04836 0.808121 0 -3.13555 0.86138 0 -3.22401 0.9175 0 -3.30673 0.973089 0 -3.3802 1.02799 0 -3.45678 1.08686 0 -3.53498 1.1454 0 -3.61266 1.20524 0 -3.69094 1.27071 0 -3.76193 1.33827 0 -3.82242 1.39827 0 -3.7017 2.36204 0 -3.65232 2.2796 0 -3.53847 2.24381 0 -3.41812 2.25428 0 -3.31155 2.26425 0 -3.1893 2.2684 0 -3.0646 2.26874 0 -2.93892 2.27371 0 -2.83545 2.3283 0 -2.77226 2.42456 0 -2.71457 2.51003 0 -2.6496 2.59888 0 -2.58139 2.68944 0 -2.50919 2.77667 0 -2.43159 2.87208 0 -2.41022 2.99488 0 -2.40225 3.11771 0 -2.41508 3.24626 0 -2.44927 3.3687 0 -2.49652 3.48293 0 -2.5515 3.58777 0 -2.62007 3.68643 0 -2.71025 3.77537 0 -2.81575 3.84872 0 -2.9281 3.91118 0 -3.04686 3.95736 0 -3.17276 3.97827 0 -3.3036 3.97761 0 -3.4347 3.95854 0 -3.56405 3.91817 0 -3.69121 3.85791 0 -3.77267 3.81147 0 -3.84969 3.76265 0 -3.92205 3.71021 0 -3.98978 3.6515 0 -4.05297 3.5853 0 -4.0824 3.49427 0 -4.14144 3.31222 0 -4.13068 3.12166 0 -4.07294 2.95527 0 -4.02186 2.86641 0 -3.96662 2.7781 0 -3.91437 2.69478 0 -3.86316 2.61356 0 -3.80916 2.53172 0 -3.75401 2.44589 0 -8.51701 -0.529479 0 -8.64179 -0.522738 0 -8.79872 -0.535064 0 -8.95264 -0.570366 0 -9.03493 -0.669929 0 -9.11936 -0.768588 0 -9.20659 -0.863082 0 -9.29653 -0.954376 0 -9.38871 -1.04165 0 -9.48341 -1.12609 0 -9.58096 -1.20852 0 -9.68077 -1.28686 0 -9.71595 -1.41207 0 -9.7314 -1.54082 0 -9.72629 -1.67017 0 -9.70231 -1.79764 0 -9.62784 -1.89124 0 -9.5729 -1.95985 0 -9.52013 -2.02943 0 -9.4673 -2.09865 0 -9.41643 -2.16983 0 -9.36572 -2.24097 0 -9.3135 -2.31157 0 -9.2105 -2.36455 0 -9.10056 -2.37128 0 -8.99131 -2.38008 0 -8.88245 -2.39286 0 -8.77315 -2.40583 0 -8.66345 -2.41955 0 -8.55507 -2.43617 0 -8.44692 -2.45398 0 -8.33805 -2.4706 0 -8.24886 -2.41003 0 -8.15854 -2.35111 0 -8.09187 -2.27105 0 -8.03412 -2.18478 0 -8.02963 -2.02651 0 -8.02332 -1.86867 0 -8.01467 -1.71203 0 -8.00284 -1.55445 0 -7.98784 -1.39703 0 -7.97078 -1.23907 0 -8.01788 -1.06075 0 -8.09518 -0.893155 0 -8.21528 -0.757624 0 -8.30503 -0.655636 0 -8.39554 -0.553564 0 -4.03383 2.86681 0 -4.09148 2.96816 0 -4.20109 3.05289 0 -4.32745 3.11708 0 -4.4524 3.10157 0 -4.5819 3.08383 0 -4.71183 3.06487 0 -4.84184 3.04389 0 -4.9724 3.02031 0 -5.10147 2.99461 0 -5.22771 2.96738 0 -5.35281 2.93835 0 -5.47864 2.90675 0 -5.60415 2.87018 0 -5.70429 2.73137 0 -5.74666 2.57879 0 -5.78837 2.42653 0 -5.76708 2.28163 0 -5.72167 2.14032 0 -5.65366 2.00987 0 -5.5661 1.89597 0 -5.44973 1.84633 0 -5.32804 1.79379 0 -5.20579 1.73953 0 -5.0872 1.68421 0 -4.96924 1.62656 0 -4.84966 1.56594 0 -4.72902 1.50308 0 -4.60698 1.43965 0 -4.48617 1.37629 0 -4.3203 1.36902 0 -4.15191 1.42328 0 -3.98814 1.48594 0 -3.90352 1.57072 0 -3.86767 1.67203 0 -3.82698 1.7709 0 -3.78255 1.86531 0 -3.73828 1.96839 0 -3.69404 2.063 0 -3.65188 2.15271 0 -3.65684 2.26781 0 -3.72827 2.38585 0 -3.80452 2.50613 0 -3.87905 2.6197 0 -3.95604 2.7425 0 -7.61904 3.54362 0 -7.55396 3.46068 0 -7.48925 3.37762 0 -7.37367 3.34494 0 -7.265 3.36258 0 -7.15651 3.38074 0 -7.04806 3.39852 0 -6.93981 3.41596 0 -6.83084 3.4334 0 -6.72151 3.45082 0 -6.61179 3.46864 0 -6.50133 3.48644 0 -6.39098 3.50398 0 -6.2814 3.52134 0 -6.17251 3.53897 0 -6.0844 3.64068 0 -6.05343 3.75544 0 -6.01728 3.89626 0 -5.9824 4.03616 0 -5.94877 4.17629 0 -5.9177 4.31911 0 -5.99119 4.49756 0 -6.09716 4.65989 0 -6.23165 4.79902 0 -6.38921 4.91004 0 -6.52553 4.97506 0 -6.66927 5.01939 0 -6.81754 5.04199 0 -6.968 5.04257 0 -7.11794 5.02052 0 -7.26378 4.97543 0 -7.40204 4.90916 0 -7.52899 4.82297 0 -7.60882 4.75206 0 -7.68029 4.67337 0 -7.74259 4.58795 0 -7.79479 4.49657 0 -7.83628 4.40032 0 -7.86724 4.30033 0 -7.88743 4.19781 0 -7.89683 4.09389 0 -7.89585 3.98942 0 -7.88355 3.88545 0 -7.7959 3.77077 0 -7.70733 3.65685 0 -5.29327 -1.52513 0 -5.16889 -1.56319 0 -5.04516 -1.60583 0 -4.92326 -1.65248 0 -4.862 -1.58383 0 -4.80155 -1.51245 0 -4.74256 -1.43959 0 -4.68515 -1.36488 0 -4.62897 -1.28666 0 -4.57528 -1.2079 0 -4.52267 -1.12821 0 -4.47072 -1.04595 0 -4.42026 -0.964497 0 -4.37187 -0.882644 0 -4.3893 -0.766622 0 -4.42559 -0.659309 0 -4.49318 -0.580185 0 -4.58058 -0.484806 0 -4.67048 -0.388781 0 -4.75941 -0.294274 0 -4.84854 -0.25872 0 -4.94133 -0.232198 0 -5.13867 -0.236088 0 -5.33644 -0.236974 0 -5.53315 -0.234039 0 -5.6313 -0.229721 0 -5.72947 -0.22513 0 -5.92588 -0.209232 0 -6.02311 -0.199942 0 -6.12007 -0.192171 0 -6.27949 -0.25835 0 -6.42686 -0.346546 0 -6.55948 -0.455766 0 -6.59765 -0.608917 0 -6.59735 -0.747371 0 -6.58072 -0.885693 0 -6.51275 -1.00531 0 -6.44694 -1.12678 0 -6.3813 -1.24851 0 -6.31801 -1.37173 0 -6.21459 -1.37692 0 -6.1113 -1.38245 0 -6.00844 -1.39088 0 -5.9056 -1.40194 0 -5.80345 -1.41535 0 -5.70076 -1.43108 0 -5.59836 -1.44916 0 -5.49558 -1.4709 0 -5.39372 -1.49675 0 -8.99801 -2.38948 0 -9.10502 -2.38096 0 -9.21148 -2.37571 0 -9.31806 -2.4291 0 -9.37652 -2.51631 0 -9.43381 -2.60549 0 -9.49031 -2.69501 0 -9.54603 -2.78413 0 -9.60107 -2.87379 0 -9.65623 -2.96454 0 -9.71101 -3.05565 0 -9.76532 -3.14593 0 -9.81909 -3.23705 0 -9.87004 -3.33024 0 -9.83954 -3.47902 0 -9.78461 -3.62088 0 -9.70673 -3.75135 0 -9.61407 -3.86157 0 -9.50542 -3.9559 0 -9.3829 -4.03158 0 -9.28707 -4.07405 0 -9.18728 -4.10525 0 -9.08466 -4.12458 0 -8.98053 -4.13173 0 -8.87621 -4.12683 0 -8.77296 -4.10991 0 -8.67221 -4.08102 0 -8.57545 -4.04057 0 -8.48404 -3.98953 0 -8.39907 -3.9287 0 -8.40507 -3.76733 0 -8.40787 -3.60626 0 -8.40766 -3.44528 0 -8.40357 -3.28381 0 -8.39684 -3.12307 0 -8.3879 -2.96284 0 -8.3755 -2.80222 0 -8.3608 -2.64179 0 -8.34358 -2.48209 0 -8.49086 -2.45675 0 -8.63828 -2.43336 0 -8.81846 -2.41037 0 -8.38613 -3.93549 0 -8.26139 -4.04726 0 -8.11914 -4.13606 0 -7.96343 -4.19931 0 -7.86439 -4.16849 0 -7.76752 -4.13196 0 -7.67136 -4.09266 0 -7.5764 -4.05095 0 -7.48288 -4.00738 0 -7.39065 -3.96239 0 -7.29957 -3.91444 0 -7.21064 -3.86464 0 -7.12265 -3.8121 0 -7.03577 -3.75774 0 -7.01637 -3.65555 0 -7.05246 -3.57043 0 -7.08947 -3.48655 0 -7.13444 -3.37885 0 -7.17924 -3.27148 0 -7.22388 -3.16396 0 -7.26604 -3.05455 0 -7.30781 -2.946 0 -7.34978 -2.83635 0 -7.4091 -2.67489 0 -7.43723 -2.59435 0 -7.46555 -2.51366 0 -7.55884 -2.41945 0 -7.68799 -2.37911 0 -7.79815 -2.34547 0 -7.90921 -2.31337 0 -8.02981 -2.32625 0 -8.14751 -2.35586 0 -8.24028 -2.41628 0 -8.33108 -2.47869 0 -8.35058 -2.63944 0 -8.36543 -2.80108 0 -8.37791 -2.96246 0 -8.38692 -3.12361 0 -8.3937 -3.28582 0 -8.39775 -3.44788 0 -8.3979 -3.60973 0 -8.39498 -3.77278 0 -8.05255 3.9187 0 -8.19031 3.93249 0 -8.32898 3.92553 0 -8.46444 3.89807 0 -8.59346 3.85054 0 -8.64762 3.74969 0 -8.70188 3.64926 0 -8.75676 3.54864 0 -8.81208 3.44819 0 -8.86763 3.34837 0 -8.92362 3.24867 0 -8.98021 3.14905 0 -9.03732 3.04973 0 -9.09445 2.95146 0 -9.07335 2.82692 0 -9.03292 2.70744 0 -8.97443 2.59624 0 -8.91626 2.51558 0 -8.84721 2.44274 0 -8.77045 2.37924 0 -8.68633 2.32531 0 -8.58832 2.32727 0 -8.49202 2.33039 0 -8.3951 2.33375 0 -8.29806 2.3375 0 -8.20147 2.34185 0 -8.10411 2.34672 0 -7.95393 2.355 0 -7.80276 2.36491 0 -7.67851 2.4594 0 -7.63737 2.62192 0 -7.59764 2.78389 0 -7.55616 2.94567 0 -7.51477 3.1077 0 -7.47586 3.27148 0 -7.49715 3.36922 0 -7.55227 3.44231 0 -7.66496 3.58622 0 -7.77678 3.72998 0 -7.88842 3.87334 0 -8.08777 -0.885595 0 -7.98513 -0.940933 0 -7.87648 -0.980644 0 -7.76152 -1.00281 0 -7.65659 -0.977808 0 -7.5513 -0.953653 0 -7.44683 -0.930494 0 -7.34285 -0.908656 0 -7.23744 -0.887949 0 -7.13332 -0.868883 0 -7.02918 -0.85086 0 -6.92433 -0.833548 0 -6.81861 -0.817153 0 -6.71278 -0.801958 0 -6.64073 -0.695699 0 -6.59971 -0.576718 0 -6.57042 -0.448378 0 -6.61572 -0.35026 0 -6.6689 -0.257204 0 -6.72988 -0.168872 0 -6.8001 -0.0842692 0 -6.94943 -0.0169342 0 -7.09819 0.0539306 0 -7.24654 0.127268 0 -7.39288 0.203013 0 -7.48812 0.253987 0 -7.58346 0.30591 0 -7.69022 0.316923 0 -7.79865 0.315534 0 -7.888 0.278706 0 -7.97793 0.241027 0 -8.06811 0.203326 0 -8.15859 0.165307 0 -8.31362 0.0993436 0 -8.35335 -0.00160461 0 -8.38313 -0.106235 0 -8.40178 -0.213976 0 -8.40836 -0.323145 0 -8.40492 -0.432235 0 -8.39025 -0.540782 0 -8.291 -0.656603 0 -8.18989 -0.771328 0 -5.76241 -3.25447 0 -5.73817 -3.1403 0 -5.73922 -3.0245 0 -5.76546 -2.91013 0 -5.82555 -2.82946 0 -5.8855 -2.749 0 -5.94576 -2.66789 0 -6.00503 -2.58789 0 -6.06464 -2.50734 0 -6.1241 -2.42721 0 -6.18332 -2.34752 0 -6.24259 -2.26742 0 -6.30278 -2.18591 0 -6.3626 -2.10542 0 -6.42206 -2.02488 0 -6.48165 -1.94557 0 -6.57897 -1.90858 0 -6.70255 -1.96637 0 -6.82495 -2.02901 0 -6.94522 -2.09511 0 -7.06471 -2.16392 0 -7.18127 -2.23818 0 -7.29746 -2.31417 0 -7.41212 -2.39142 0 -7.45337 -2.51829 0 -7.39619 -2.68138 0 -7.33631 -2.84393 0 -7.27413 -3.00595 0 -7.21143 -3.1682 0 -7.14404 -3.33014 0 -7.07658 -3.49126 0 -7.0059 -3.65121 0 -6.93465 -3.71241 0 -6.85395 -3.76265 0 -6.75929 -3.79309 0 -6.66398 -3.82102 0 -6.55418 -3.85063 0 -6.44436 -3.87859 0 -6.33973 -3.86779 0 -6.23736 -3.84103 0 -6.12987 -3.73068 0 -6.03008 -3.61875 0 -5.9361 -3.50346 0 -5.84612 -3.38337 0 -8.97867 -0.407763 0 -9.01648 -0.289951 0 -9.07628 -0.181422 0 -9.15329 -0.0840484 0 -9.25144 -0.0647319 0 -9.35008 -0.0463553 0 -9.4486 -0.0291354 0 -9.54746 -0.0114623 0 -9.64694 0.00573366 0 -9.74773 0.0213044 0 -9.84794 0.0373114 0 -9.94847 0.0534553 0 -10.0485 0.0689926 0 -10.1502 0.0835474 0 -10.2587 0.0167263 0 -10.3542 -0.070042 0 -10.4332 -0.171609 0 -10.4953 -0.29162 0 -10.5306 -0.405033 0 -10.5467 -0.524389 0 -10.5436 -0.644635 0 -10.5207 -0.761672 0 -10.4788 -0.874159 0 -10.4185 -0.978576 0 -10.3081 -1.10211 0 -10.1741 -1.19793 0 -10.022 -1.26204 0 -9.85772 -1.29166 0 -9.69228 -1.28182 0 -9.59025 -1.20322 0 -9.49284 -1.12109 0 -9.3974 -1.03612 0 -9.30429 -0.948031 0 -9.21435 -0.856785 0 -9.12746 -0.76271 0 -9.04393 -0.665183 0 -8.96294 -0.56428 0 -2.7765 2.3999 0 -2.82525 2.32396 0 -2.82411 2.21533 0 -2.76379 2.13759 0 -2.70701 2.06331 0 -2.65209 1.98647 0 -2.60195 1.90999 0 -2.55236 1.83265 0 -2.49973 1.75212 0 -2.44965 1.67668 0 -2.40269 1.60599 0 -2.35284 1.53804 0 -2.30035 1.46541 0 -2.16926 1.46279 0 -2.04239 1.48244 0 -1.93361 1.52003 0 -1.81082 1.59045 0 -1.69376 1.69056 0 -1.59746 1.81752 0 -1.53455 1.95035 0 -1.5047 2.09365 0 -1.5081 2.25238 0 -1.53995 2.40929 0 -1.60473 2.5599 0 -1.70047 2.67797 0 -1.81155 2.78458 0 -1.87941 2.83408 0 -1.95594 2.86869 0 -2.03759 2.88439 0 -2.11325 2.89165 0 -2.19213 2.89829 0 -2.27436 2.90352 0 -2.35108 2.89763 0 -2.42069 2.86832 0 -2.5003 2.77188 0 -2.57509 2.68122 0 -2.63998 2.59521 0 -2.70907 2.50056 0 
                </DataArray>
            </Points>
            <Polys>
                <DataArray type="Int64" Name="connectivity" format="ascii">