<VTKFile type="PolyData" version="0.1" byte_order="LittleEndian">
    <PolyData>
        <Piece NumberOfPoints="3224" NumberOfPolys="74">
            <CellData>
                <DataArray type="Float64" Name="area" format="ascii">
1.93496 2.58371 2.79676 1.71623 1.65846 2.2 1.72753 1.47573 2.66025 2.19023 1.59894 1.85478 3.54362 2.29636 2.63539 2.26921 2.22242 2.31345 2.04124 1.50758 2.2798 2.40173 2.13655 1.68033 2.70699 1.89094 3.34231 2.02629 2.34957 1.64074 3.20019 1.40988 1.45325 1.40093 2.50678 2.61284 3.14753 2.60723 3.52757 1.34561 1.76309 2.6962 2.46757 2.34002 2.6075 2.14566 1.3962 2.68821 2.43925 2.10422 2.53334 2.64528 2.23151 2.32994 2.41423 1.76727 2.33363 2.22481 2.32719 1.90324 1.46847 1.59339 2.07495 1.63136 1.30172 1.94296 1.77066 1.6548 1.44531 1.41337 1.74434 1.62606 1.41238 1.30738 
                </DataArray>
                <DataArray type="Float64" Name="c1" format="ascii">
0.0489851 0.0133639 0.0154839 0.0161244 0.0180972 0.00985705 0.0194768 0.0282476 0.0111832 0.0187294 0.00813269 0.0137803 0.0103741 0.0203125 0.0306948 0.0199557 0.0111417 0.0220204 0.0142776 0.0216927 0.00854935 0.0107334 0.0149238 0.0189791 0.0145713 0.012542 0.025123 0.0331103 0.0119201 0.0155537 0.0163909 0.0157636 0.0138135 0.0323073 0.0199388 0.0114984 0.00975749 0.0247307 0.023091 0.0132385 0.0285357 0.0362078 0.024564 0.0342138 0.00946744 0.00891872 0.00880493 0.0241714 0.0167029 0.0121683 0.0190893 0.0134418 0.0277639 0.0127371 0.0204873 0.0113652 0.0128664 0.016819 0.0121045 0.0126021 0.0163724 0.0141961 0.0157422 0.0374115 0.0128964 0.0127105 0.0359128 0.0124173 0.0312675 0.0255877 0.0234747 0.0158977 0.0247107 0.0180435 
                </DataArray>
                <DataArray type="Float64" Name="c2" format="ascii">
0.492928 0.710337 0.555047 0.661321 0.69447 0.952787 0.508515 0.442281 0.941096 0.517003 0.791282 0.83397 0.622316 0.645357 0.485827 0.476961 0.902223 0.52951 0.680744 0.588692 0.889959 0.761272 0.796197 0.641313 0.610432 0.938955 0.425345 0.490869 0.785462 0.506968 0.747797 0.62181 0.759382 0.543371 0.632139 0.636361 0.862257 0.516844 0.442507 0.950775 0.440826 0.467824 0.47835 0.507979 0.762428 0.709571 0.959037 0.599496 0.632206 0.94749 0.564977 0.773015 0.536361 0.860297 0.590308 0.80618 0.691629 0.56714 0.677713 0.867033 0.708109 0.869112 0.700306 0.466242 0.939038 0.552813 0.529056 0.805039 0.446592 0.581823 0.487141 0.800542 0.54517 0.588296 
                </DataArray>
                <DataArray type="Float64" Name="grad_c1" NumberOfComponents="2" format="ascii">
0.000613665 -0.000238507 0.00111491 0.00125773 0.000865322 0.00259218 0.00156677 -0.00186517 0.00226059 -0.00058824 0.000136537 0.000801929 0.000418203 0.00346757 -0.00312186 -0.00306744 0.000306427 -0.000737812 0.000162334 -0.00285507 0.000222746 0.000929579 0.00112852 0.000516876 0.000551361 0.00136335 0.00342689 0.000541121 -0.000571306 0.00519532 -0.000630142 -0.00273816 0.00028452 0.000809502 0.000886565 -0.00418976 0.00106978 -0.00161851 0.00309038 0.00270894 0.000235349 0.000768642 0.000574335 0.00106732 0.00123077 -0.00110418 0.00293586 0.0013238 0.00142967 0.00199861 0.000275959 0.000324935 -0.00203592 -0.00135539 -0.000811124 -0.00931267 0.00067798 -0.00119085 0.000556668 0.00264344 0.00171359 0.000595144 0.00115422 -0.0022139 0.00119928 0.000855922 0.0085605 0.00184903 0.00254382 -0.00179437 0.000728674 0.00157181 0.000359349 0.000827287 0.00179946 0.00407168 -0.00146934 -0.00262345 0.000591086 0.000122593 -0.00306781 0.000200106 -0.00636668 0.00349646 -0.000898104 -0.00420487 0.00463909 0.00835984 0.000350291 0.000998457 0.000376349 0.00103293 0.000132355 0.000623577 0.00465758 -0.00104201 0.00202861 0.00200417 0.000379239 -0.00068656 0.00192966 0.00282348 0.000903087 -0.00123853 0.0034853 -0.00571377 0.000944076 -0.000963436 0.00226057 -0.00288118 0.000608746 0.00098659 0.000712148 -0.00160299 0.00048925 -0.0024545 0.000857177 0.00141259 0.000579831 0.000583534 0.00155356 -0.0015928 0.00132741 0.000506658 0.00192056 0.000972151 -0.00792247 -0.0066394 0.000414121 0.000252673 0.000500139 0.00173126 0.0097875 -0.0055254 0.000773029 0.000832126 -0.00485666 -0.00132544 0.00481905 0.00170371 0.000205217 0.00465599 0.0011803 -0.000579128 0.00276993 0.00387407 0.00107128 -0.00246709 
                </DataArray>
                <DataArray type="Float64" Name="grad_c2" NumberOfComponents="2" format="ascii">
-0.028123 0.001348 -0.0601991 -0.00931991 -0.0360902 -0.00748121 -0.0521359 0.0192515 -0.0652685 0.00664874 -0.0738363 -0.00834534 -0.0318632 -0.00151274 -0.011721 0.00060009 -0.0586617 0.0137375 -0.0231766 0.0233919 -0.059188 -0.0153292 -0.0694144 0.00915125 -0.0360961 -0.0268627 -0.0477775 0.00719263 -0.0106962 -0.00752011 -0.0188468 0.0181672 -0.0854294 -0.00754617 -0.0301727 0.0143754 -0.051626 0.0273864 -0.0409657 0.00437653 -0.0576885 -0.0226943 -0.0624745 -0.0249663 -0.0753283 0.00335239 -0.0469496 -0.00181743 -0.0389986 -0.0104689 -0.0913931 -0.00445096 -0.0103702 0.00124582 -0.0308034 0.00622541 -0.0639759 0.0295194 -0.0227437 -0.00748888 -0.0751893 0.0205755 -0.0324355 0.0250484 -0.06634 0.00138201 -0.0383418 0.00131817 -0.0552068 0.0076347 -0.0451403 -0.0234377 -0.0651597 -0.0228755 -0.0214289 -0.01239 -0.0126803 0.0097741 -0.0664655 0.0120105 -0.0149555 -0.00700783 -0.0137785 -0.00783829 -0.0228153 0.0161429 -0.0276532 0.000807545 -0.0635342 -0.028052 -0.0505298 -0.0264637 -0.0545651 -0.0209167 -0.0470945 -0.000226846 -0.0480732 0.0015045 -0.068816 0.000492261 -0.0297859 -0.00838378 -0.0697826 0.0201098 -0.0313594 0.00897812 -0.0551486 0.00820432 -0.0396496 0.015543 -0.0687671 -0.0147845 -0.0485133 0.0292548 -0.0341641 0.0276319 -0.0581181 -0.02085 -0.084397 0.000255539 -0.0706305 0.00718328 -0.0599325 0.0300067 -0.0567913 -0.000974833 -0.0220656 -0.00147033 -0.0873429 0.00635976 -0.0328957 -0.0314647 -0.0322485 0.00326402 -0.0717838 -0.0047261 -0.0158286 -0.00563867 -0.0445972 -0.00347045 -0.0193688 0.0077219 -0.092302 0.000618952 -0.0438162 -9.49915e-05 -0.0401792 0.0264882 
                </DataArray>
                <DataArray type="Float64" Name="D1" format="ascii">
20.1884 47.8887 46.4257 29.5543 23.66 26.9155 31.6639 27.4076 30.8932 41.7876 28.6995 27.0936 25.8601 46.5973 31.4408 35.0437 37.913 16.8386 22.4411 28.3868 31.9534 36.3592 34.0147 20.1184 48.0826 38.3651 47.2917 29.8961 38.9749 43.0421 26.8686 32.3324 29.6121 52.4272 42.8323 25.5713 28.1693 45.098 44.1968 28.4491 30.3703 41.505 32.6894 22.6517 35.3618 31.9818 24.0428 32.7424 26.7175 29.508 44.3121 28.2242 27.8128 26.5813 30.8246 46.914 48.7844 41.4616 31.3182 28.2595 20.2364 40.5486 24.6711 47.482 32.0649 44.6824 52.2158 47.3894 32.4518 52.2923 18.3945 42.4468 31.6307 29.1673 
                </DataArray>
                <DataArray type="Float64" Name="D2" format="ascii">
28.1376 29.476 55.2662 32.7903 26.1502 20.7843 31.7025 33.9204 29.999 25.2094 41.1061 34.7848 33.2469 38.6467 34.7848 56.3213 22.3241 25.0052 21.7317 17.7694 45.6173 35.0981 35.203 30.2212 14.9015 18.5881 34.7508 28.0313 24.2088 26.0686 28.7328 30.8758 30.5008 53.0714 18.1999 22.0737 37.4859 35.7535 23.7409 30.8278 21.4514 27.9131 23.3293 14.4624 29.8897 37.7594 29.304 28.5592 39.9196 26.3448 27.5206 49.805 30.1134 19.3908 37.1173 27.7042 52.5175 26.5361 31.9319 30.1957 27.006 30.3275 28.4724 19.6285 23.2588 18.6695 35.0552 19.8417 50.5155 42.4682 44.448 44.9619 36.4719 27.3981 
                </DataArray>
                <DataArray type="Float64" Name="k1" format="ascii">
0.910378 0.571072 1.14395 1.54432 0.926629 1.25016 0.575564 1.55852 0.945503 0.860941 0.791226 0.616893 1.05281 1.17647 0.817944 0.63907 0.482176 1.56031 0.91796 0.830993 0.79104 0.957837 0.807719 1.03161 1.08356 0.877557 1.01713 0.934678 0.868774 1.64607 0.737187 1.13232 0.856645 1.08628 0.597704 0.754089 0.758816 0.893221 0.690579 1.14494 1.4856 0.921894 1.55448 1.14625 1.25886 1.23837 0.981043 1.37766 1.11592 1.33894 0.934055 1.04397 0.879296 1.21283 1.39915 0.756872 0.755242 0.89103 1.19026 0.871086 0.529083 1.22767 1.03069 1.1488 1.81727 1.21152 0.847017 0.734935 0.662995 1.28191 0.860585 1.36496 0.886109 0.658994 
                </DataArray>
                <DataArray type="Float64" Name="k2" format="ascii">
0.1 0.1 0.1 0.1 0.1 0.1 0.1 0.1 0.1 0.1 0.1 0.1 0.1 0.1 0.1 0.1 0.1 0.1 0.1 0.1 0.1 0.1 0.1 0.1 0.1 0.1 0.1 0.1 0.1 0.1 0.1 0.1 0.1 0.1 0.1 0.1 0.1 0.1 0.1 0.1 0.1 0.1 0.1 0.1 0.1 0.1 0.1 0.1 0.1 0.1 0.1 0.1 0.1 0.1 0.1 0.1 0.1 0.1 0.1 0.1 0.1 0.1 0.1 0.1 0.1 0.1 0.1 0.1 0.1 0.1 0.1 0.1 0.1 0.1 
                </DataArray>
                <DataArray type="Float64" Name="k3" format="ascii">
1 1 1 1 1 1 1 1 1 1 1 1 1 1 1 1 1 1 1 1 1 1 1 1 1 1 1 1 1 1 1 1 1 1 1 1 1 1 1 1 1 1 1 1 1 1 1 1 1 1 1 1 1 1 1 1 1 1 1 1 1 1 1 1 1 1 1 1 1 1 1 1 1 1 
                </DataArray>
                <DataArray type="Int64" Name="cell_type" format="ascii">
0 1 1 1 1 2 1 1 1 1 2 1 1 1 1 1 1 1 1 1 2 1 1 1 1 1 1 1 1 1 1 1 1 1 1 1 2 1 1 1 1 1 1 1 2 2 2 1 1 1 1 1 1 1 1 1 1 1 1 1 1 1 1 1 1 1 1 1 1 1 1 1 1 1 
                </DataArray>
                <DataArray type="Float64" Name="perimeter" format="ascii">
5.19347 5.98198 6.11304 4.94432 4.77564 5.66047 4.87939 4.51736 5.86413 5.41655 4.60311 5.00709 6.81943 5.62353 5.98168 5.51554 5.6345 5.66081 5.24658 4.59875 5.57007 5.80964 5.57201 4.78937 6.11332 5.25134 6.61208 5.38882 5.59455 4.63794 6.5672 4.89368 4.49513 4.3307 5.86129 6.01083 6.65452 6.0275 6.94159 4.20643 4.94132 6.11725 5.76286 5.59359 6.02202 5.31155 4.34576 6.14025 5.82513 5.26592 6.0425 5.95001 5.55578 5.57993 5.73178 4.89098 5.61673 5.45113 5.86976 5.31509 4.61115 4.61958 5.4572 4.74184 4.15003 5.09722 4.97083 4.78321 4.46957 4.47087 4.77943 4.73333 4.50272 4.81538 
                </DataArray>
                <DataArray type="Float64" Name="neighbors" format="ascii">
5 7 6 7 7 3 5 4 2 4 2 5 3 5 4 3 5 6 5 5 3 5 5 4 5 3 4 6 3 3 6 4 4 4 5 6 6 6 4 2 3 5 5 5 6 4 3 6 6 2 7 6 4 4 4 5 3 4 5 5 5 4 5 5 4 3 5 5 5 5 3 3 5 4 
                </DataArray>
            </CellData>
            <Points>
                <DataArray type="Float64" Name="Points" NumberOfComponents="3" format="ascii">
-5.96817 2.43469 0 -6.09238 2.46829 0 -6.20957 2.50547 0 -6.30455 2.46074 0 -6.35524 2.3695 0 -6.4028 2.28574 0 -6.45527 2.20599 0 -6.51205 2.12985 0 -6.5701 2.05052 0 -6.6236 1.96755 0 -6.67725 1.8819 0 -6.73228 1.79765 0 -6.78904 1.71339 0 -6.84572 1.62959 0 -6.84135 1.50709 0 -6.82197 1.38464 0 -6.78047 1.26628 0 -6.74088 1.18763 0 -6.69478 1.11511 0 -6.54484 1.02846 0 -6.39458 0.935661 0 -6.25162 0.844365 0 -6.10673 0.750903 0 -5.96655 0.657108 0 -5.83809 0.667211 0 -5.7073 0.706082 0 -5.63441 0.748257 0 -5.56969 0.799019 0 -5.54002 0.88934 0 -5.5113 0.9765 0 -5.48328 1.06127 0 -5.45127 1.14627 0 -5.38429 1.32113 0 -5.31823 1.49464 0 -5.28577 1.58473 0 -5.25809 1.67233 0 -5.3415 1.77672 0 -5.42607 1.88391 0 -5.50618 1.99279 0 -5.58586 2.1027 0 -5.66491 2.21875 0 -5.73807 2.32651 0 -5.80824 2.40283 0 -5.88904 2.42082 0 -10.4964 -3.22462 0 -10.4051 -3.15287 0 -10.3356 -3.01639 0 -10.2846 -2.87269 0 -10.2519 -2.72325 0 -10.312 -2.61106 0 -10.3709 -2.49835 0 -10.4284 -2.38627 0 -10.4844 -2.27328 0 -10.5375 -2.16015 0 -10.5875 -2.04701 0 -10.6357 -1.9328 0 -10.683 -1.81706 0 -10.7294 -1.70078 0 -10.8355 -1.59974 0 -10.9434 -1.58073 0 -11.0514 -1.56319 0 -11.208 -1.53743 0 -11.3799 -1.58158 0 -11.4419 -1.65105 0 -11.5083 -1.7194 0 -11.6552 -1.84628 0 -11.7554 -1.9309 0 -11.8323 -2.07083 0 -11.8509 -2.20007 0 -11.8799 -2.32968 0 -11.9119 -2.45782 0 -11.9519 -2.59091 0 -11.9352 -2.74429 0 -11.8752 -2.87193 0 -11.8217 -2.99921 0 -11.7724 -3.13069 0 -11.7331 -3.26047 0 -11.7004 -3.39218 0 -11.6732 -3.5241 0 -11.5861 -3.60556 0 -11.4786 -3.61801 0 -11.3713 -3.63341 0 -11.2322 -3.65771 0 -11.098 -3.68338 0 -10.9453 -3.64892 0 -10.8407 -3.53695 0 -10.7311 -3.42919 0 -10.6168 -3.3244 0 -6.86428 -3.07088 0 -6.96224 -3.03042 0 -7.06269 -3.0165 0 -7.16146 -3.05736 0 -7.26162 -3.10024 0 -7.35996 -3.14552 0 -7.456 -3.19262 0 -7.55183 -3.24204 0 -7.64598 -3.29296 0 -7.73816 -3.34404 0 -7.82767 -3.39585 0 -7.91467 -3.44696 0 -8.00214 -3.49682 0 -8.09375 -3.54789 0 -8.1563 -3.69699 0 -8.20119 -3.87459 0 -8.24739 -4.05478 0 -8.28013 -4.1689 0 -8.31292 -4.28131 0 -8.31596 -4.39099 0 -8.30783 -4.50017 0 -8.24733 -4.58287 0 -8.18598 -4.66375 0 -8.12495 -4.74404 0 -8.06313 -4.8238 0 -8.00075 -4.90362 0 -7.93725 -4.98162 0 -7.8342 -5.01856 0 -7.72554 -5.04573 0 -7.61422 -5.06306 0 -7.50373 -5.07135 0 -7.39286 -5.06874 0 -7.28327 -5.05671 0 -7.17315 -4.99719 0 -7.06212 -4.9353 0 -6.95281 -4.87287 0 -6.84587 -4.80993 0 -6.73994 -4.74522 0 -6.6686 -4.64202 0 -6.60178 -4.5316 0 -6.58027 -4.41527 0 -6.55185 -4.30013 0 -6.52268 -4.18999 0 -6.49144 -4.08307 0 -6.45687 -3.97434 0 -6.44252 -3.85267 0 -6.44325 -3.72954 0 -6.53457 -3.59483 0 -6.60169 -3.49538 0 -6.67052 -3.38869 0 -6.73841 -3.27957 0 -6.80497 -3.17145 0 -10.4664 5.49176 0 -10.5075 5.39359 0 -10.5071 5.28807 0 -10.4896 5.18258 0 -10.4309 5.11783 0 -10.3715 5.05221 0 -10.3135 4.98504 0 -10.2547 4.91722 0 -10.1969 4.84629 0 -10.1383 4.77445 0 -10.0808 4.70163 0 -10.0224 4.62991 0 -9.9174 4.59515 0 -9.8081 4.57919 0 -9.69116 4.60185 0 -9.57431 4.62284 0 -9.45767 4.64492 0 -9.37901 4.7142 0 -9.30889 4.79192 0 -9.25609 4.87712 0 -9.20055 4.95918 0 -9.08848 5.12088 0 -8.97309 5.27762 0 -8.85332 5.43161 0 -8.83308 5.57826 0 -8.81369 5.73021 0 -8.93031 5.87663 0 -9.0397 5.90397 0 -9.1453 5.92261 0 -9.25258 5.9208 0 -9.35969 5.92087 0 -9.46681 5.92242 0 -9.57348 5.92594 0 -9.67996 5.93088 0 -9.78673 5.93737 0 -9.8938 5.94562 0 -10.0007 5.95565 0 -10.1077 5.96778 0 -10.2154 5.97853 0 -10.3029 5.81849 0 -10.3861 5.65686 0 -11.0212 3.57567 0 -11.1111 3.52111 0 -11.2001 3.46785 0 -11.2534 3.36667 0 -11.2585 3.28437 0 -11.2629 3.20774 0 -11.2603 3.13504 0 -11.2586 3.04986 0 -11.2612 2.96409 0 -11.2673 2.86493 0 -11.2824 2.75112 0 -11.3042 2.6504 0 -11.3219 2.54564 0 -11.334 2.44843 0 -11.3017 2.33454 0 -11.2403 2.24584 0 -11.1669 2.18757 0 -11.0866 2.11991 0 -10.9823 2.05242 0 -10.8702 1.9726 0 -10.7381 1.93176 0 -10.6023 1.90457 0 -10.4593 1.98204 0 -10.3552 2.03677 0 -10.2507 2.08901 0 -10.1629 2.18265 0 -10.0866 2.2896 0 -10.0285 2.40501 0 -10.0032 2.52461 0 -9.97996 2.64087 0 -9.96349 2.75535 0 -10.0818 2.89763 0 -10.1925 3.04639 0 -10.296 3.19906 0 -10.3975 3.35715 0 -10.5354 3.47834 0 -10.6735 3.50546 0 -10.8492 3.54461 0 -14.9797 -5.07105 0 -14.9314 -5.18361 0 -14.8574 -5.28291 0 -14.762 -5.36189 0 -14.6508 -5.41554 0 -14.5519 -5.38472 0 -14.4535 -5.35168 0 -14.3554 -5.3158 0 -14.2579 -5.2778 0 -14.1617 -5.23754 0 -14.0665 -5.19325 0 -13.9718 -5.14689 0 -13.8789 -5.09682 0 -13.8059 -4.96459 0 -13.7708 -4.80484 0 -13.7382 -4.64386 0 -13.7074 -4.48357 0 -13.686 -4.36985 0 -13.664 -4.25593 0 -13.6838 -4.13509 0 -13.7238 -4.01868 0 -13.7948 -3.9399 0 -13.8668 -3.86292 0 -13.9402 -3.78777 0 -14.0149 -3.71593 0 -14.1413 -3.59573 0 -14.2711 -3.47852 0 -14.4018 -3.36398 0 -14.5295 -3.25223 0 -14.6662 -3.26617 0 -14.7912 -3.31976 0 -14.8926 -3.40636 0 -14.9633 -3.51987 0 -14.9991 -3.65137 0 -15.0003 -3.78834 0 -15.0003 -3.92512 0 -15.0003 -4.06172 0 -15.0003 -4.19904 0 -15.0002 -4.33856 0 -15.0003 -4.48029 0 -15.0003 -4.62319 0 -15.0003 -4.76633 0 -15.0002 -4.90985 0 -5.30844 -3.31358 0 -5.26836 -3.20614 0 -5.25028 -3.08549 0 -5.23962 -2.97357 0 -5.30076 -2.9074 0 -5.35976 -2.84359 0 -5.42415 -2.77256 0 -5.48482 -2.70508 0 -5.54851 -2.62751 0 -5.61429 -2.55376 0 -5.67542 -2.48675 0 -5.74578 -2.41219 0 -5.79978 -2.35139 0 -5.84732 -2.30209 0 -5.96422 -2.29696 0 -6.05497 -2.33755 0 -6.14138 -2.37398 0 -6.27475 -2.43101 0 -6.38621 -2.47149 0 -6.49738 -2.50981 0 -6.6169 -2.55157 0 -6.73973 -2.59726 0 -6.86703 -2.65371 0 -6.88292 -2.75537 0 -6.88817 -2.85532 0 -6.87552 -2.95687 0 -6.8565 -3.06215 0 -6.80573 -3.1506 0 -6.75417 -3.23507 0 -6.67677 -3.35991 0 -6.59836 -3.48226 0 -6.51831 -3.60111 0 -6.43886 -3.71798 0 -6.32983 -3.7759 0 -6.24013 -3.7618 0 -6.14477 -3.74524 0 -6.05213 -3.73147 0 -5.95835 -3.71767 0 -5.86689 -3.70404 0 -5.76754 -3.69786 0 -5.66996 -3.69188 0 -5.57988 -3.68485 0 -5.49122 -3.61191 0 -5.42155 -3.52247 0 -5.35597 -3.42059 0 -4.25694 2.67158 0 -4.22785 2.55526 0 -4.19781 2.43995 0 -4.11339 2.3707 0 -4.02139 2.36483 0 -3.93577 2.36117 0 -3.84393 2.3571 0 -3.75809 2.35239 0 -3.67096 2.34724 0 -3.57244 2.34015 0 -3.48139 2.33343 0 -3.38602 2.32501 0 -3.29067 2.31205 0 -3.19262 2.29978 0 -3.09722 2.2865 0 -3.0033 2.32603 0 -2.92744 2.38391 0 -2.88696 2.5657 0 -2.84793 2.7615 0 -2.83655 2.85417 0 -2.83417 2.94337 0 -2.85779 3.03458 0 -2.90688 3.11647 0 -2.97821 3.17125 0 -3.05357 3.22481 0 -3.14554 3.29108 0 -3.249 3.342 0 -3.34427 3.38892 0 -3.45057 3.43141 0 -3.57239 3.47306 0 -3.6964 3.51003 0 -3.80876 3.54461 0 -3.92595 3.55831 0 -4.07787 3.46809 0 -4.20072 3.34603 0 -4.29089 3.19852 0 -4.34325 3.029 0 -4.31976 2.92024 0 -4.29053 2.80916 0 -14.9988 6.0809 0 -14.9746 5.92622 0 -14.9236 5.77788 0 -14.8475 5.63992 0 -14.7492 5.51615 0 -14.6521 5.50264 0 -14.5534 5.49063 0 -14.4542 5.47784 0 -14.355 5.4642 0 -14.2553 5.44973 0 -14.1551 5.43439 0 -14.0545 5.41817 0 -13.9532 5.40101 0 -13.8516 5.38377 0 -13.737 5.41372 0 -13.629 5.46247 0 -13.5547 5.55797 0 -13.4508 5.6871 0 -13.3462 5.81651 0 -13.2407 5.94639 0 -13.133 6.07574 0 -13.1223 6.18259 0 -13.1235 6.29058 0 -13.1366 6.39828 0 -13.1616 6.5041 0 -13.1983 6.60665 0 -13.2463 6.70463 0 -13.3206 6.81752 0 -13.4104 6.91945 0 -13.5142 7.00812 0 -13.6298 7.08165 0 -13.811 7.15728 0 -14.0028 7.19382 0 -14.1958 7.1892 0 -14.3822 7.14504 0 -14.5553 7.06449 0 -14.7074 6.94986 0 -14.8319 6.80611 0 -14.9249 6.64005 0 -14.9815 6.45903 0 -15.0003 6.27064 0 -5.14666 7.01346 0 -5.29354 7.0032 0 -5.43636 6.97076 0 -5.57177 6.91708 0 -5.61864 6.81255 0 -5.66488 6.70821 0 -5.71141 6.6038 0 -5.75859 6.49971 0 -5.8062 6.39629 0 -5.85369 6.29336 0 -5.90062 6.19097 0 -5.94686 6.08894 0 -5.99247 5.98653 0 -6.03687 5.88285 0 -6.00578 5.75232 0 -5.92745 5.66554 0 -5.85076 5.58254 0 -5.78038 5.50605 0 -5.70877 5.42977 0 -5.63696 5.35451 0 -5.4872 5.30571 0 -5.36219 5.32224 0 -5.23523 5.34062 0 -5.10679 5.35912 0 -4.97876 5.37844 0 -4.85218 5.39735 0 -4.7267 5.41747 0 -4.61608 5.48871 0 -4.57547 5.58087 0 -4.53594 5.67415 0 -4.48888 5.78579 0 -4.44177 5.89865 0 -4.3958 6.01228 0 -4.35147 6.12555 0 -4.30849 6.23887 0 -4.269 6.35381 0 -4.32764 6.50439 0 -4.41222 6.64283 0 -4.49111 6.73563 0 -4.58191 6.81743 0 -4.68282 6.88645 0 -4.79186 6.94125 0 -4.90676 6.98089 0 -5.02561 7.00494 0 -10.2316 -8.12615 0 -10.1412 -8.05054 0 -10.0628 -7.96245 0 -9.99795 -7.86384 0 -10.016 -7.77721 0 -10.036 -7.69118 0 -10.0568 -7.60577 0 -10.0783 -7.52091 0 -10.1003 -7.43617 0 -10.1228 -7.35137 0 -10.1456 -7.26678 0 -10.1688 -7.18239 0 -10.1924 -7.09839 0 -10.2162 -7.01536 0 -10.2401 -6.93298 0 -10.3106 -6.88854 0 -10.3872 -6.85468 0 -10.5148 -6.87506 0 -10.6422 -6.898 0 -10.7688 -6.92312 0 -10.8946 -6.95017 0 -11.0198 -6.97917 0 -11.1443 -7.01029 0 -11.2682 -7.04526 0 -11.3575 -7.16427 0 -11.4212 -7.30008 0 -11.4559 -7.44688 0 -11.4615 -7.56015 0 -11.4492 -7.67321 0 -11.4195 -7.78284 0 -11.3731 -7.88617 0 -11.3111 -7.98085 0 -11.235 -8.06502 0 -11.1774 -8.11427 0 -11.1147 -8.15779 0 -10.9772 -8.22566 0 -10.8278 -8.26598 0 -10.6723 -8.27658 0 -10.5172 -8.25629 0 -10.3684 -8.20545 0 -12.4782 0.854344 0 -12.529 0.929812 0 -12.6141 0.973181 0 -12.7081 1.00027 0 -12.803 0.996797 0 -12.8996 0.992883 0 -12.9948 0.989015 0 -13.0892 0.98733 0 -13.1851 0.985834 0 -13.2804 0.987833 0 -13.3765 0.989935 0 -13.4724 0.992628 0 -13.566 0.995941 0 -13.6623 0.99809 0 -13.7372 0.925134 0 -13.7731 0.822643 0 -13.8085 0.719661 0 -13.8541 0.588006 0 -13.8996 0.455914 0 -13.8818 0.272138 0 -13.8156 0.0979349 0 -13.7608 -0.0236105 0 -13.6729 -0.128229 0 -13.5868 -0.154799 0 -13.4986 -0.180261 0 -13.4112 -0.205338 0 -13.3213 -0.230954 0 -13.2296 -0.256598 0 -13.1369 -0.282496 0 -13.043 -0.309616 0 -12.9491 -0.339674 0 -12.8569 -0.370297 0 -12.7641 -0.39937 0 -12.648 -0.352423 0 -12.5402 -0.287364 0 -12.4442 -0.206463 0 -12.3628 -0.112984 0 -12.2953 -0.0089238 0 -12.2438 0.106169 0 -12.21 0.265117 0 -12.213 0.42296 0 -12.2788 0.535263 0 -12.3456 0.645742 0 -12.4113 0.750887 0 -6.60935 -6.85801 0 -6.58384 -6.69383 0 -6.58429 -6.53042 0 -6.61241 -6.37196 0 -6.70907 -6.28803 0 -6.80291 -6.20362 0 -6.89268 -6.12219 0 -6.97915 -6.03734 0 -7.06754 -5.94837 0 -7.15167 -5.85975 0 -7.23677 -5.76817 0 -7.3191 -5.67263 0 -7.40081 -5.57839 0 -7.54782 -5.53779 0 -7.69745 -5.51994 0 -7.85076 -5.52597 0 -8.00092 -5.55786 0 -8.0849 -5.63365 0 -8.16878 -5.70972 0 -8.25085 -5.78628 0 -8.33205 -5.8645 0 -8.41491 -5.94345 0 -8.49679 -6.02325 0 -8.5783 -6.10243 0 -8.66 -6.18219 0 -8.74195 -6.26362 0 -8.82468 -6.34643 0 -8.85273 -6.47283 0 -8.81017 -6.59298 0 -8.76849 -6.71245 0 -8.72817 -6.83057 0 -8.68937 -6.94965 0 -8.65282 -7.07134 0 -8.62262 -7.17536 0 -8.55475 -7.26907 0 -8.47812 -7.35509 0 -8.39276 -7.43229 0 -8.29959 -7.50127 0 -8.1998 -7.5626 0 -8.09317 -7.61204 0 -7.98165 -7.64826 0 -7.86761 -7.67442 0 -7.75305 -7.68901 0 -7.63921 -7.69194 0 -7.52543 -7.6849 0 -7.34046 -7.64577 0 -7.25169 -7.61435 0 -7.1657 -7.57561 0 -7.08217 -7.53081 0 -7.00494 -7.47648 0 -6.93289 -7.41735 0 -6.86691 -7.35146 0 -6.80682 -7.27908 0 -6.75329 -7.20108 0 -6.66689 -7.03353 0 -9.12295 0.9917 0 -9.09846 1.08923 0 -9.12581 1.21944 0 -9.21573 1.30654 0 -9.30239 1.39063 0 -9.38535 1.47017 0 -9.46434 1.5491 0 -9.54389 1.62799 0 -9.62161 1.70813 0 -9.6974 1.78875 0 -9.76935 1.86597 0 -9.84678 1.94161 0 -9.92362 2.01714 0 -10.0002 2.08916 0 -10.1215 2.09268 0 -10.2449 2.07993 0 -10.3461 2.03026 0 -10.4727 1.96356 0 -10.6036 1.89158 0 -10.659 1.81155 0 -10.7145 1.71574 0 -10.7225 1.62078 0 -10.733 1.5286 0 -10.7385 1.42716 0 -10.7481 1.3212 0 -10.7569 1.22107 0 -10.7592 1.12177 0 -10.7608 1.01973 0 -10.7614 0.923777 0 -10.7619 0.83735 0 -10.7629 0.755744 0 -10.7645 0.675026 0 -10.7655 0.593196 0 -10.6927 0.518362 0 -10.6133 0.451388 0 -10.53 0.391239 0 -10.4433 0.338065 0 -10.2764 0.337315 0 -10.1798 0.33706 0 -10.0835 0.335195 0 -9.98661 0.333093 0 -9.88829 0.329853 0 -9.73672 0.317356 0 -9.583 0.299811 0 -9.4487 0.352683 0 -9.33325 0.437661 0 -9.22869 0.537764 0 -9.20499 0.644062 0 -9.1774 0.758787 0 -9.15058 0.873624 0 -4.13038 -0.63652 0 -4.1426 -0.489565 0 -4.17958 -0.349692 0 -4.24006 -0.220091 0 -4.35648 -0.168883 0 -4.47125 -0.118543 0 -4.58634 -0.0689143 0 -4.70413 -0.0183072 0 -4.82338 0.0357375 0 -4.94219 0.0918812 0 -5.06045 0.149191 0 -5.17685 0.207055 0 -5.29293 0.266249 0 -5.41055 0.327886 0 -5.54673 0.31353 0 -5.67428 0.274226 0 -5.78732 0.21042 0 -5.81527 0.118697 0 -5.84551 0.0245382 0 -5.87588 -0.0687398 0 -5.90929 -0.161991 0 -5.94349 -0.257932 0 -5.97971 -0.347797 0 -6.01613 -0.438354 0 -6.05663 -0.529547 0 -6.09609 -0.622205 0 -6.0801 -0.73263 0 -6.01646 -0.821087 0 -5.95149 -0.908119 0 -5.88796 -0.993831 0 -5.81953 -1.09037 0 -5.75313 -1.18875 0 -5.68585 -1.2886 0 -5.61705 -1.38878 0 -5.51061 -1.46654 0 -5.3897 -1.52462 0 -5.30298 -1.51912 0 -5.21752 -1.51336 0 -5.13019 -1.50866 0 -5.03946 -1.5049 0 -4.9502 -1.49654 0 -4.85026 -1.49158 0 -4.7605 -1.4865 0 -4.66177 -1.47198 0 -4.57908 -1.44144 0 -4.49732 -1.38058 0 -4.41686 -1.32047 0 -4.34439 -1.25291 0 -4.26663 -1.13943 0 -4.20841 -1.0211 0 -4.16744 -0.902972 0 -4.14027 -0.773114 0 -4.06248 4.85023 0 -3.97136 4.753 0 -3.85118 4.72218 0 -3.75397 4.7674 0 -3.65566 4.81515 0 -3.55646 4.86438 0 -3.45743 4.91519 0 -3.35869 4.9681 0 -3.26232 5.02266 0 -3.16892 5.07863 0 -3.07581 5.13552 0 -2.98365 5.19255 0 -2.8916 5.25033 0 -2.80038 5.31156 0 -2.77972 5.46092 0 -2.78208 5.61176 0 -2.80714 5.76047 0 -2.83757 5.85931 0 -2.87817 5.95417 0 -2.92842 6.0434 0 -2.98745 6.12622 0 -3.05486 6.20211 0 -3.1302 6.27089 0 -3.21294 6.33198 0 -3.30127 6.38482 0 -3.39415 6.42789 0 -3.49006 6.46119 0 -3.5882 6.48365 0 -3.68746 6.49547 0 -3.78712 6.49666 0 -3.88652 6.4872 0 -3.98473 6.46726 0 -4.08057 6.43717 0 -4.17261 6.39634 0 -4.25915 6.34607 0 -4.29848 6.23726 0 -4.3394 6.1292 0 -4.38159 6.02102 0 -4.42509 5.91291 0 -4.46965 5.80588 0 -4.51409 5.70028 0 -4.55862 5.59506 0 -4.60337 5.48968 0 -4.57321 5.37512 0 -4.48634 5.28861 0 -4.39991 5.20105 0 -4.31347 5.11268 0 -4.22816 5.02452 0 -4.14473 4.93774 0 -13.567 -4.05467 0 -13.4754 -3.99971 0 -13.3838 -3.94562 0 -13.3119 -3.86036 0 -13.2567 -3.75926 0 -13.251 -3.65881 0 -13.2456 -3.55907 0 -13.2334 -3.459 0 -13.2207 -3.35729 0 -13.2055 -3.25539 0 -13.1857 -3.15538 0 -13.1666 -3.05987 0 -13.141 -2.96592 0 -13.1154 -2.86983 0 -13.1246 -2.76796 0 -13.1443 -2.67515 0 -13.2129 -2.59543 0 -13.3082 -2.47206 0 -13.3972 -2.34564 0 -13.4847 -2.2132 0 -13.562 -2.08125 0 -13.7055 -1.98554 0 -13.8889 -1.96814 0 -14.0726 -1.95014 0 -14.2237 -2.03047 0 -14.3612 -2.13604 0 -14.4757 -2.26485 0 -14.5655 -2.41415 0 -14.6244 -2.57627 0 -14.6489 -2.74276 0 -14.6414 -2.91241 0 -14.6013 -3.08049 0 -14.5316 -3.23712 0 -14.4465 -3.31151 0 -14.3232 -3.4196 0 -14.1979 -3.52878 0 -14.0759 -3.64417 0 -13.9531 -3.76058 0 -13.8344 -3.88198 0 -13.7197 -4.0073 0 -7.47947 5.16223 0 -7.45783 5.00031 0 -7.40876 4.84649 0 -7.33569 4.7039 0 -7.22521 4.65128 0 -7.11646 4.59658 0 -7.01142 4.54024 0 -6.90751 4.48246 0 -6.80367 4.42238 0 -6.70188 4.35886 0 -6.604 4.29039 0 -6.50982 4.21653 0 -6.42017 4.14009 0 -6.33341 4.05864 0 -6.21961 4.03843 0 -6.12544 4.09919 0 -6.03117 4.16121 0 -5.91883 4.23146 0 -5.81106 4.37282 0 -5.77357 4.53433 0 -5.73819 4.6958 0 -5.69961 4.85687 0 -5.65787 5.01673 0 -5.615 5.17745 0 -5.64923 5.35226 0 -5.72154 5.42882 0 -5.79358 5.5057 0 -5.90243 5.6238 0 -6.01126 5.74196 0 -6.15903 5.8146 0 -6.30609 5.825 0 -6.45293 5.8358 0 -6.59865 5.84679 0 -6.74281 5.85774 0 -6.88953 5.82613 0 -7.01079 5.69815 0 -7.13183 5.56998 0 -7.24856 5.43755 0 -7.36511 5.30003 0 -8.64463 6.78654 0 -8.65598 6.89572 0 -8.68929 7.0005 0 -8.77647 7.05269 0 -8.86562 7.10198 0 -8.95599 7.14799 0 -9.04726 7.19083 0 -9.13951 7.23085 0 -9.23288 7.2683 0 -9.32745 7.3033 0 -9.42308 7.33585 0 -9.5197 7.36593 0 -9.61715 7.39341 0 -9.71569 7.41749 0 -9.82352 7.39744 0 -9.92491 7.35724 0 -10.0162 7.29892 0 -10.106 7.1645 0 -10.1906 7.027 0 -10.2697 6.88477 0 -10.3434 6.73905 0 -10.4121 6.58938 0 -10.4152 6.48681 0 -10.4032 6.3835 0 -10.361 6.28356 0 -10.3158 6.18507 0 -10.2684 6.08673 0 -10.2189 5.9907 0 -10.046 5.97071 0 -9.93176 5.9591 0 -9.81761 5.94966 0 -9.70404 5.94226 0 -9.59144 5.93669 0 -9.47932 5.93275 0 -9.36732 5.93089 0 -9.25497 5.93074 0 -9.14305 5.93272 0 -9.03295 5.96475 0 -8.93166 6.01626 0 -8.88228 6.10493 0 -8.83803 6.19556 0 -8.78696 6.30954 0 -8.74162 6.42578 0 -8.70305 6.54442 0 -8.67093 6.6646 0 -8.35911 -1.60327 0 -8.26944 -1.52774 0 -8.23198 -1.43808 0 -8.19275 -1.35807 0 -8.20205 -1.2573 0 -8.20289 -1.17526 0 -8.20836 -1.09453 0 -8.21119 -1.00621 0 -8.20422 -0.906218 0 -8.21427 -0.804704 0 -8.22504 -0.70438 0 -8.22253 -0.598322 0 -8.23052 -0.482911 0 -8.23997 -0.36169 0 -8.29211 -0.266621 0 -8.43124 -0.217824 0 -8.52766 -0.18326 0 -8.65658 -0.143879 0 -8.79066 -0.110043 0 -8.89329 -0.0814771 0 -9.00571 -0.121033 0 -9.10193 -0.179204 0 -9.17235 -0.262236 0 -9.22507 -0.355439 0 -9.25088 -0.459921 0 -9.27722 -0.577818 0 -9.30445 -0.700098 0 -9.32994 -0.817794 0 -9.35138 -0.913055 0 -9.3719 -1.00903 0 -9.32364 -1.10002 0 -9.27206 -1.19092 0 -9.21338 -1.28134 0 -9.15457 -1.36691 0 -9.09612 -1.44352 0 -9.03823 -1.51314 0 -8.97787 -1.58136 0 -8.91182 -1.6517 0 -8.8415 -1.72134 0 -8.76758 -1.78829 0 -8.62387 -1.7256 0 -8.50037 -1.67137 0 -11.791 -6.44336 0 -11.8097 -6.33032 0 -11.8308 -6.2051 0 -11.8532 -6.08083 0 -11.9661 -5.9711 0 -12.0941 -5.88233 0 -12.2184 -5.90568 0 -12.3441 -5.92541 0 -12.4702 -5.94209 0 -12.5976 -5.9561 0 -12.7256 -5.96705 0 -12.8528 -5.97259 0 -12.9798 -5.97467 0 -13.1067 -5.97386 0 -13.2337 -5.97015 0 -13.3602 -5.96303 0 -13.4675 -6.03957 0 -13.5202 -6.15553 0 -13.5879 -6.30381 0 -13.6573 -6.44991 0 -13.6495 -6.55072 0 -13.6308 -6.65037 0 -13.6015 -6.74795 0 -13.5614 -6.84245 0 -13.5111 -6.93259 0 -13.4511 -7.01727 0 -13.3857 -7.09185 0 -13.3135 -7.15948 0 -13.2348 -7.21961 0 -13.1501 -7.2716 0 -13.0603 -7.31478 0 -12.9662 -7.34879 0 -12.8236 -7.38129 0 -12.6776 -7.39303 0 -12.5312 -7.38354 0 -12.3868 -7.35285 0 -12.2481 -7.30159 0 -12.1182 -7.23059 0 -12 -7.1414 0 -11.8959 -7.03621 0 -11.8081 -6.91729 0 -11.7384 -6.78663 0 -11.7544 -6.67145 0 -11.7725 -6.557 0 -11.8195 -5.58564 0 -11.7228 -5.64654 0 -11.6162 -5.68435 0 -11.505 -5.6989 0 -11.4059 -5.66849 0 -11.3083 -5.63547 0 -11.2121 -5.60009 0 -11.1171 -5.56205 0 -11.0231 -5.5204 0 -10.9315 -5.47081 0 -10.8412 -5.41816 0 -10.7522 -5.36306 0 -10.6647 -5.30561 0 -10.5795 -5.24394 0 -10.5468 -5.11759 0 -10.5796 -5.00034 0 -10.6094 -4.89732 0 -10.6393 -4.79454 0 -10.6694 -4.6921 0 -10.7007 -4.59066 0 -10.7326 -4.48958 0 -10.7651 -4.38842 0 -10.8161 -4.24097 0 -10.868 -4.09357 0 -10.9199 -3.94829 0 -10.9723 -3.80606 0 -11.1058 -3.69244 0 -11.2846 -3.65847 0 -11.4388 -3.63357 0 -11.5914 -3.61636 0 -11.7438 -3.70324 0 -11.8607 -3.83287 0 -11.9778 -3.95644 0 -12.0993 -4.08015 0 -12.0981 -4.20876 0 -12.0924 -4.33763 0 -12.0828 -4.46879 0 -12.0707 -4.59964 0 -12.0569 -4.73241 0 -12.0405 -4.86504 0 -12.0214 -4.99686 0 -11.9997 -5.12845 0 -11.9764 -5.25896 0 -11.9578 -5.3561 0 -11.9368 -5.45341 0 -11.6915 5.15504 0 -11.8138 5.20371 0 -11.9466 5.19196 0 -12.0159 5.10128 0 -12.0834 5.01059 0 -12.1493 4.92078 0 -12.214 4.8328 0 -12.2775 4.74712 0 -12.3403 4.66416 0 -12.4032 4.58317 0 -12.4684 4.50072 0 -12.5369 4.41233 0 -12.6101 4.31887 0 -12.683 4.22668 0 -12.7101 4.0938 0 -12.7037 3.96497 0 -12.6729 3.8388 0 -12.6185 3.71599 0 -12.5395 3.61205 0 -12.4343 3.52777 0 -12.2752 3.51159 0 -12.1214 3.49847 0 -11.9797 3.48624 0 -11.8296 3.47384 0 -11.6829 3.46374 0 -11.5127 3.45175 0 -11.4053 3.44461 0 -11.2991 3.43886 0 -11.165 3.49995 0 -11.0368 3.57895 0 -11.0583 3.67998 0 -11.0796 3.7807 0 -11.0983 3.87971 0 -11.1177 3.9809 0 -11.1393 4.08591 0 -11.1578 4.1896 0 -11.1738 4.29705 0 -11.1872 4.40721 0 -11.1979 4.5199 0 -11.2072 4.63033 0 -11.2141 4.73787 0 -11.2219 4.84917 0 -11.2967 4.96561 0 -11.3944 5.01681 0 -11.4927 5.06424 0 -11.5907 5.11063 0 -10.4387 0.326529 0 -10.5254 0.243381 0 -10.5859 0.146013 0 -10.6226 0.03