<VTKFile type="PolyData" version="0.1" byte_order="LittleEndian">
    <PolyData>
        <Piece NumberOfPoints="76" NumberOfPolys="2">
            <CellData>
                <DataArray type="Float64" Name="area" format="ascii">
2.39373 2.39419 
                </DataArray>
                <DataArray type="Float64" Name="c1" format="ascii">
0.0357402 0.0229005 
                </DataArray>
                <DataArray type="Float64" Name="c2" format="ascii">
0.0845983 0.0858582 
                </DataArray>
                <DataArray type="Float64" Name="grad_c1" NumberOfComponents="2" format="ascii">
0.00148802 -0.000898331 0.00196836 0.00911399 
                </DataArray>
                <DataArray type="Float64" Name="grad_c2" NumberOfComponents="2" format="ascii">
-0.0212937 0.000347098 -0.0216363 -0.000346425 
                </DataArray>
                <DataArray type="Float64" Name="D1" format="ascii">
20.1884 47.8887 
                </DataArray>
                <DataArray type="Float64" Name="D2" format="ascii">
28.1376 29.476 
                </DataArray>
                <DataArray type="Float64" Name="k1" format="ascii">
0.910378 0.571072 
                </DataArray>
                <DataArray type="Float64" Name="k2" format="ascii">
0.1 0.1 
                </DataArray>
                <DataArray type="Float64" Name="k3" format="ascii">
1 1 
                </DataArray>
                <DataArray type="Int64" Name="cell_type" format="ascii">
0 1 
                </DataArray>
                <DataArray type="Float64" Name="perimeter" format="ascii">
5.51526 5.51579 
                </DataArray>
                <DataArray type="Float64" Name="neighbors" format="ascii">
1 1 
                </DataArray>
            </CellData>
            <Points>
                <DataArray type="Float64" Name="Points" NumberOfComponents="3" format="ascii">
-1.01363 0.579699 0 -0.968182 0.447134 0 -0.902277 0.323519 0 -0.817596 0.211954 0 -0.716274 0.115298 0 -0.600901 0.0359319 0 -0.474297 0.0251903 0 -0.34765 0.0150215 0 -0.221042 0.00485523 0 -0.0944378 -0.00531007 0 0.0322011 -0.0154752 0 0.158796 -0.0250014 0 0.285355 0.0349676 0 0.400796 0.114242 0 0.502187 0.210884 0 0.586956 0.32242 0 0.65295 0.446044 0 0.7068 0.613773 0 0.726214 0.788918 0 0.710397 0.964467 0 0.659945 1.13341 0 0.576879 1.28898 0 0.464502 1.42499 0 0.327348 1.53593 0 0.170852 1.61738 0 0.0870866 1.64607 0 0.000877976 1.66625 0 -0.0869176 1.67774 0 -0.175421 1.68039 0 -0.263743 1.6742 0 -0.351008 1.65923 0 -0.518481 1.60375 0 -0.671562 1.51609 0 -0.804177 1.39973 0 -0.910975 1.25938 0 -0.987705 1.10064 0 -1.03131 0.929862 0 -1.04006 0.753862 0 0.570552 -0.57994 0 0.525095 -0.447361 0 0.459179 -0.323734 0 0.374484 -0.21216 0 0.273148 -0.115498 0 0.15776 -0.0361272 0 0.0311538 -0.0253875 0 -0.0954954 -0.0152211 0 -0.222104 -0.00505545 0 -0.348711 0.00511074 0 -0.475351 0.0152784 0 -0.601948 0.024807 0 -0.728522 -0.0351639 0 -0.843979 -0.114443 0 -0.945385 -0.211092 0 -1.03017 -0.322637 0 -1.09617 -0.446273 0 -1.15003 -0.614019 0 -1.16945 -0.789183 0 -1.15364 -0.964752 0 -1.10318 -1.13371 0 -1.02011 -1.2893 0 -0.907721 -1.42533 0 -0.770553 -1.53628 0 -0.61404 -1.61775 0 -0.530266 -1.64644 0 -0.444048 -1.66662 0 -0.356243 -1.67811 0 -0.26773 -1.68076 0 -0.179398 -1.67457 0 -0.0921235 -1.65959 0 0.0753674 -1.60411 0 0.228465 -1.51644 0 0.361093 -1.40007 0 0.467901 -1.2597 0 0.544637 -1.10094 0 0.588239 -0.930141 0 0.596985 -0.754122 0 
                </DataArray>
            </Points>
            <Polys>
                <DataArray type="Int64" Name="connectivity" format="ascii">
0 1 2 3 4 5 6 7 8 9 10 11 12 13 14 15 16 17 18 19 20 21 22 23 24 25 26 27 28 29 30 31 32 33 34 35 36 37 38 39 40 41 42 43 44 45 46 47 48 49 50 51 52 53 54 55 56 57 58 59 60 61 62 63 64 65 66 67 68 69 70 71 72 73 74 75 
                </DataArray>
                <DataArray type="Int64" Name="offsets" format="ascii">
38 76 
                </DataArray>
            </Polys>
        </Piece>
    </PolyData>
</VTKFile>
