<VTKFile type="PolyData" version="0.1" byte_order="LittleEndian">
    <PolyData>
        <Piece NumberOfPoints="76" NumberOfPolys="2">
            <CellData>
                <DataArray type="Float64" Name="area" format="ascii">
2.59352 2.59411 
                </DataArray>
                <DataArray type="Float64" Name="c1" format="ascii">
0.0375501 0.0234487 
                </DataArray>
                <DataArray type="Float64" Name="c2" format="ascii">
0.10872 0.112319 
                </DataArray>
                <DataArray type="Float64" Name="grad_c1" NumberOfComponents="2" format="ascii">
0.00134675 -0.000809453 0.00183829 0.0090514 
                </DataArray>
                <DataArray type="Float64" Name="grad_c2" NumberOfComponents="2" format="ascii">
-0.0243333 0.000460997 -0.0249658 -0.000385553 
                </DataArray>
                <DataArray type="Float64" Name="D1" format="ascii">
20.1884 47.8887 
                </DataArray>
                <DataArray type="Float64" Name="D2" format="ascii">
28.1376 29.476 
                </DataArray>
                <DataArray type="Float64" Name="k1" format="ascii">
0.910378 0.571072 
                </DataArray>
                <DataArray type="Float64" Name="k2" format="ascii">
0.1 0.1 
                </DataArray>
                <DataArray type="Float64" Name="k3" format="ascii">
1 1 
                </DataArray>
                <DataArray type="Int64" Name="cell_type" format="ascii">
0 1 
                </DataArray>
                <DataArray type="Float64" Name="perimeter" format="ascii">
5.7408 5.74145 
                </DataArray>
                <DataArray type="Float64" Name="neighbors" format="ascii">
1 1 
                </DataArray>
            </CellData>
            <Points>
                <DataArray type="Float64" Name="Points" NumberOfComponents="3" format="ascii">
-1.1573 0.60339 0 -1.10999 0.465426 0 -1.0414 0.336756 0 -0.95328 0.22063 0 -0.847859 0.119993 0 -0.727816 0.0373921 0 -0.596084 0.0261793 0 -0.464318 0.0155374 0 -0.332559 0.00489638 0 -0.200801 -0.00574356 0 -0.0690403 -0.0163817 0 0.0626862 -0.0263765 0 0.194444 0.0359139 0 0.314654 0.118353 0 0.420269 0.218857 0 0.508609 0.334875 0 0.577427 0.46348 0 0.633618 0.638034 0 0.653935 0.820333 0 0.637562 1.00308 0 0.585145 1.17897 0 0.498768 1.34096 0 0.381873 1.48256 0 0.239132 1.59812 0 0.0762514 1.68301 0 -0.0109531 1.71293 0 -0.100713 1.73398 0 -0.192132 1.74598 0 -0.284291 1.74879 0 -0.376266 1.74238 0 -0.467137 1.72683 0 -0.641517 1.66913 0 -0.800932 1.57794 0 -0.939008 1.4569 0 -1.05023 1.31085 0 -1.13016 1.14564 0 -1.17561 0.967878 0 -1.18478 0.784686 0 0.491202 -0.603558 0 0.443885 -0.465577 0 0.375283 -0.336892 0 0.287144 -0.220755 0 0.181705 -0.12011 0 0.0616432 -0.0375036 0 -0.0700909 -0.0262936 0 -0.20186 -0.0156543 0 -0.333621 -0.00501408 0 -0.46538 0.00562696 0 -0.597142 0.016268 0 -0.728871 0.0262659 0 -0.860648 -0.0360266 0 -0.980877 -0.118472 0 -1.08651 -0.218984 0 -1.17487 -0.335014 0 -1.2437 -0.463633 0 -1.2999 -0.638208 0 -1.32023 -0.82053 0 -1.30385 -1.0033 0 -1.25144 -1.17921 0 -1.16505 -1.34122 0 -1.04814 -1.48285 0 -0.905383 -1.59843 0 -0.742482 -1.68333 0 -0.655266 -1.71325 0 -0.565494 -1.73431 0 -0.474064 -1.7463 0 -0.381893 -1.74911 0 -0.289906 -1.74271 0 -0.199023 -1.72715 0 -0.0246211 -1.66945 0 0.134813 -1.57824 0 0.272906 -1.45718 0 0.384138 -1.31111 0 0.464073 -1.14587 0 0.509527 -0.968091 0 0.51869 -0.784876 0 
                </DataArray>
            </Points>
            <Polys>
                <DataArray type="Int64" Name="connectivity" format="ascii">
0 1 2 3 4 5 6 7 8 9 10 11 12 13 14 15 16 17 18 19 20 21 22 23 24 25 26 27 28 29 30 31 32 33 34 35 36 37 38 39 40 41 42 43 44 45 46 47 48 49 50 51 52 53 54 55 56 57 58 59 60 61 62 63 64 65 66 67 68 69 70 71 72 73 74 75 
                </DataArray>
                <DataArray type="Int64" Name="offsets" format="ascii">
38 76 
                </DataArray>
            </Polys>
        </Piece>
    </PolyData>
</VTKFile>
