<VTKFile type="PolyData" version="0.1" byte_order="LittleEndian">
    <PolyData>
        <Piece NumberOfPoints="76" NumberOfPolys="2">
            <CellData>
                <DataArray type="Float64" Name="area" format="ascii">
2.79289 2.7936 
                </DataArray>
                <DataArray type="Float64" Name="c1" format="ascii">
0.0425416 0.0268669 
                </DataArray>
                <DataArray type="Float64" Name="c2" format="ascii">
0.136638 0.139357 
                </DataArray>
                <DataArray type="Float64" Name="grad_c1" NumberOfComponents="2" format="ascii">
0.00351984 -0.00135211 0.00342903 0.0105576 
                </DataArray>
                <DataArray type="Float64" Name="grad_c2" NumberOfComponents="2" format="ascii">
-0.0277413 0.000499286 -0.0282168 -0.000453284 
                </DataArray>
                <DataArray type="Float64" Name="D1" format="ascii">
20.1884 47.8887 
                </DataArray>
                <DataArray type="Float64" Name="D2" format="ascii">
28.1376 29.476 
                </DataArray>
                <DataArray type="Float64" Name="k1" format="ascii">
0.910378 0.571072 
                </DataArray>
                <DataArray type="Float64" Name="k2" format="ascii">
0.1 0.1 
                </DataArray>
                <DataArray type="Float64" Name="k3" format="ascii">
1 1 
                </DataArray>
                <DataArray type="Int64" Name="cell_type" format="ascii">
0 1 
                </DataArray>
                <DataArray type="Float64" Name="perimeter" format="ascii">
5.95738 5.95814 
                </DataArray>
                <DataArray type="Float64" Name="neighbors" format="ascii">
1 1 
                </DataArray>
            </CellData>
            <Points>
                <DataArray type="Float64" Name="Points" NumberOfComponents="3" format="ascii">
-1.31539 0.626595 0 -1.26639 0.483389 0 -1.1953 0.349809 0 -1.10392 0.229235 0 -0.99459 0.124718 0 -0.870069 0.0389028 0 -0.733376 0.0272063 0 -0.596651 0.0160839 0 -0.459934 0.00496353 0 -0.323218 -0.00615564 0 -0.186496 -0.017274 0 -0.0498036 -0.0277488 0 0.0869565 0.0368365 0 0.211744 0.122332 0 0.321395 0.226575 0 0.413127 0.346929 0 0.484614 0.480348 0 0.543026 0.661458 0 0.564223 0.850623 0 0.547345 1.04027 0 0.49306 1.22283 0 0.403527 1.39098 0 0.28232 1.538 0 0.134277 1.658 0 -0.0346905 1.7462 0 -0.125166 1.7773 0 -0.218298 1.79921 0 -0.313155 1.81171 0 -0.408787 1.81468 0 -0.504234 1.8081 0 -0.598542 1.79201 0 -0.779531 1.73225 0 -0.945005 1.63771 0 -1.08836 1.51218 0 -1.20386 1.36069 0 -1.2869 1.1893 0 -1.33417 1.00486 0 -1.34379 0.814756 0 0.39457 -0.626637 0 0.345553 -0.483412 0 0.274446 -0.349815 0 0.183056 -0.229228 0 0.0737013 -0.124701 0 -0.050843 -0.0388796 0 -0.187538 -0.0271864 0 -0.324266 -0.0160671 0 -0.460985 -0.00494767 0 -0.597702 0.00617278 0 -0.734427 0.0172946 0 -0.871121 0.027773 0 -1.0079 -0.0368147 0 -1.13271 -0.122317 0 -1.24239 -0.22657 0 -1.33414 -0.346937 0 -1.40564 -0.480373 0 -1.46407 -0.661508 0 -1.48527 -0.850699 0 -1.4684 -1.04038 0 -1.41411 -1.22296 0 -1.32457 -1.39113 0 -1.20334 -1.53818 0 -1.05528 -1.65821 0 -0.886288 -1.74642 0 -0.7958 -1.77752 0 -0.702654 -1.79943 0 -0.607783 -1.81194 0 -0.512138 -1.81491 0 -0.416676 -1.80832 0 -0.322354 -1.79224 0 -0.14134 -1.73246 0 0.0241574 -1.63791 0 0.167526 -1.51236 0 0.283042 -1.36084 0 0.366093 -1.18942 0 0.413367 -1.00496 0 0.422984 -0.814824 0 
                </DataArray>
            </Points>
            <Polys>
                <DataArray type="Int64" Name="connectivity" format="ascii">
0 1 2 3 4 5 6 7 8 9 10 11 12 13 14 15 16 17 18 19 20 21 22 23 24 25 26 27 28 29 30 31 32 33 34 35 36 37 38 39 40 41 42 43 44 45 46 47 48 49 50 51 52 53 54 55 56 57 58 59 60 61 62 63 64 65 66 67 68 69 70 71 72 73 74 75 
                </DataArray>
                <DataArray type="Int64" Name="offsets" format="ascii">
38 76 
                </DataArray>
            </Polys>
        </Piece>
    </PolyData>
</VTKFile>
