<VTKFile type="PolyData" version="0.1" byte_order="LittleEndian">
    <PolyData>
        <Piece NumberOfPoints="146" NumberOfPolys="3">
            <CellData>
                <DataArray type="Float64" Name="area" format="ascii">
3.48961 1.76499 1.83725 
                </DataArray>
                <DataArray type="Float64" Name="c1" format="ascii">
0.058419 0.0360447 0.039771 
                </DataArray>
                <DataArray type="Float64" Name="c2" format="ascii">
0.214659 0.24331 0.200336 
                </DataArray>
                <DataArray type="Float64" Name="grad_c1" NumberOfComponents="2" format="ascii">
0.00275618 -0.000773154 0.0070574 0.012475 -0.000936989 0.0150587 
                </DataArray>
                <DataArray type="Float64" Name="grad_c2" NumberOfComponents="2" format="ascii">
-0.0333897 0.000500106 -0.0362381 -0.000121036 -0.030506 -0.00114496 
                </DataArray>
                <DataArray type="Float64" Name="D1" format="ascii">
20.1884 47.8887 46.4257 
                </DataArray>
                <DataArray type="Float64" Name="D2" format="ascii">
28.1376 29.476 55.2662 
                </DataArray>
                <DataArray type="Float64" Name="k1" format="ascii">
0.910378 0.571072 1.14395 
                </DataArray>
                <DataArray type="Float64" Name="k2" format="ascii">
0.1 0.1 0.1 
                </DataArray>
                <DataArray type="Float64" Name="k3" format="ascii">
1 1 1 
                </DataArray>
                <DataArray type="Int64" Name="cell_type" format="ascii">
0 1 1 
                </DataArray>
                <DataArray type="Float64" Name="perimeter" format="ascii">
6.64855 4.80716 4.89951 
                </DataArray>
                <DataArray type="Float64" Name="neighbors" format="ascii">
2 2 2 
                </DataArray>
            </CellData>
            <Points>
                <DataArray type="Float64" Name="Points" NumberOfComponents="3" format="ascii">
-1.95705 0.587261 0 -1.93476 0.485286 0 -1.87907 0.330606 0 -1.79961 0.188544 0 -1.70245 0.058765 0 -1.59055 -0.0546114 0 -1.43746 -0.12384 0 -1.36209 -0.159638 0 -1.28644 -0.196399 0 -1.2091 -0.236007 0 -1.13535 -0.275052 0 -1.05051 -0.283784 0 -0.96545 -0.2872 0 -0.883646 -0.261841 0 -0.803885 -0.237455 0 -0.725125 -0.213471 0 -0.64292 -0.193258 0 -0.561938 -0.173528 0 -0.480836 -0.154337 0 -0.315605 -0.119601 0 -0.186907 -0.0163075 0 -0.0761533 0.103529 0 0.0130825 0.242212 0 0.07994 0.393115 0 0.11022 0.493632 0 0.131003 0.597654 0 0.141689 0.703431 0 0.141534 0.809526 0 0.130699 0.915154 0 0.110466 1.0193 0 0.081274 1.12096 0 0.0416894 1.21954 0 -0.00902667 1.31417 0 -0.0689145 1.40236 0 -0.135458 1.48289 0 -0.20858 1.55582 0 -0.288621 1.62147 0 -0.374218 1.67932 0 -0.463993 1.72855 0 -0.559334 1.76882 0 -0.6608 1.79915 0 -0.765849 1.81872 0 -0.870981 1.82705 0 -0.975251 1.8254 0 -1.07912 1.8151 0 -1.1819 1.79587 0 -1.28226 1.76537 0 -1.37866 1.72331 0 -1.47 1.67181 0 -1.55576 1.61232 0 -1.63545 1.54443 0 -1.70805 1.46865 0 -1.77351 1.38664 0 -1.83125 1.29891 0 -1.87959 1.20583 0 -1.9173 1.1082 0 -1.94505 1.00755 0 -1.9636 0.904015 0 -1.97211 0.797973 0 -1.9697 0.69172 0 -1.43345 -1.60031 0 -1.32071 -1.5512 0 -1.2187 -1.48575 0 -1.12528 -1.4039 0 -1.12032 -1.30189 0 -1.11529 -1.20039 0 -1.10982 -1.09836 0 -1.10417 -0.996062 0 -1.09847 -0.891604 0 -1.09279 -0.790565 0 -1.08661 -0.689274 0 -1.08012 -0.587333 0 -1.07223 -0.486299 0 -1.06343 -0.383164 0 -1.13711 -0.28642 0 -1.23585 -0.233412 0 -1.33263 -0.184932 0 -1.46579 -0.121883 0 -1.59814 -0.0629358 0 -1.67787 -0.0592899 0 -1.7607 -0.0642739 0 -1.91725 -0.0983317 0 -2.06402 -0.165522 0 -2.19641 -0.262346 0 -2.30596 -0.385265 0 -2.36158 -0.475396 0 -2.40448 -0.571488 0 -2.43451 -0.672545 0 -2.45026 -0.774872 0 -2.45206 -0.880482 0 -2.43978 -0.985114 0 -2.41464 -1.08503 0 -2.37718 -1.1822 0 -2.32787 -1.27421 0 -2.26695 -1.35887 0 -2.19535 -1.43455 0 -2.11492 -1.49952 0 -2.02765 -1.55374 0 -1.93517 -1.59523 0 -1.83793 -1.62219 0 -1.73694 -1.63666 0 -1.63574 -1.63758 0 -1.53427 -1.62567 0 -0.861178 -0.265338 0 -0.96521 -0.29887 0 -1.05149 -0.381689 0 -1.06118 -0.473686 0 -1.06876 -0.569333 0 -1.0751 -0.664982 0 -1.08086 -0.758205 0 -1.08623 -0.851027 0 -1.0914 -0.944799 0 -1.09647 -1.03777 0 -1.10165 -1.13162 0 -1.10653 -1.2245 0 -1.11102 -1.31591 0 -1.11348 -1.40824 0 -1.02748 -1.50845 0 -0.928209 -1.59263 0 -0.817264 -1.65652 0 -0.716579 -1.69422 0 -0.611251 -1.71849 0 -0.503517 -1.72901 0 -0.392794 -1.72297 0 -0.283511 -1.7012 0 -0.180653 -1.66559 0 -0.0841061 -1.61446 0 0.0053436 -1.54996 0 0.0854 -1.4754 0 0.154925 -1.38946 0 0.212776 -1.29662 0 0.257722 -1.1968 0 0.288238 -1.09156 0 0.305213 -0.983222 0 0.309197 -0.871743 0 0.298582 -0.761191 0 0.271834 -0.653367 0 0.229892 -0.551408 0 0.134115 -0.402708 0 0.00725213 -0.280334 0 -0.143912 -0.186963 0 -0.308631 -0.128358 0 -0.381201 -0.144089 0 -0.450805 -0.158038 0 -0.589938 -0.190492 0 -0.725301 -0.223908 0 
                </DataArray>
            </Points>
            <Polys>
                <DataArray type="Int64" Name="connectivity" format="ascii">
0 1 2 3 4 5 6 7 8 9 10 11 12 13 14 15 16 17 18 19 20 21 22 23 24 25 26 27 28 29 30 31 32 33 34 35 36 37 38 39 40 41 42 43 44 45 46 47 48 49 50 51 52 53 54 55 56 57 58 59 60 61 62 63 64 65 66 67 68 69 70 71 72 73 74 75 76 77 78 79 80 81 82 83 84 85 86 87 88 89 90 91 92 93 94 95 96 97 98 99 100 101 102 103 104 105 106 107 108 109 110 111 112 113 114 115 116 117 118 119 120 121 122 123 124 125 126 127 128 129 130 131 132 133 134 135 136 137 138 139 140 141 142 143 144 145 
                </DataArray>
                <DataArray type="Int64" Name="offsets" format="ascii">
60 103 146 
                </DataArray>
            </Polys>
        </Piece>
    </PolyData>
</VTKFile>
