<?xml version="1.0"?>
<VTKFile type="StructuredGrid" version="0.1">
    <StructuredGrid WholeExtent="0 100 0 100 0 0">
        <Piece Extent="0 100 0 100 0 0">
            <Points>
                <DataArray type="Float64" NumberOfComponents="3" format="ascii">
-15 -15 0
-15 -14.7 0
-15 -14.4 0
-15 -14.1 0
-15 -13.8 0
-15 -13.5 0
-15 -13.2 0
-15 -12.9 0
-15 -12.6 0
-15 -12.3 0
-15 -12 0
-15 -11.7 0
-15 -11.4 0
-15 -11.1 0
-15 -10.8 0
-15 -10.5 0
-15 -10.2 0
-15 -9.9 0
-15 -9.6 0
-15 -9.3 0
-15 -9 0
-15 -8.7 0
-15 -8.4 0
-15 -8.1 0
-15 -7.8 0
-15 -7.5 0
-15 -7.2 0
-15 -6.9 0
-15 -6.6 0
-15 -6.3 0
-15 -6 0
-15 -5.7 0
-15 -5.4 0
-15 -5.1 0
-15 -4.8 0
-15 -4.5 0
-15 -4.2 0
-15 -3.9 0
-15 -3.6 0
-15 -3.3 0
-15 -3 0
-15 -2.7 0
-15 -2.4 0
-15 -2.1 0
-15 -1.8 0
-15 -1.5 0
-15 -1.2 0
-15 -0.9 0
-15 -0.6 0
-15 -0.3 0
-15 0 0
-15 0.3 0
-15 0.6 0
-15 0.9 0
-15 1.2 0
-15 1.5 0
-15 1.8 0
-15 2.1 0
-15 2.4 0
-15 2.7 0
-15 3 0
-15 3.3 0
-15 3.6 0
-15 3.9 0
-15 4.2 0
-15 4.5 0
-15 4.8 0
-15 5.1 0
-15 5.4 0
-15 5.7 0
-15 6 0
-15 6.3 0
-15 6.6 0
-15 6.9 0
-15 7.2 0
-15 7.5 0
-15 7.8 0
-15 8.1 0
-15 8.4 0
-15 8.7 0
-15 9 0
-15 9.3 0
-15 9.6 0
-15 9.9 0
-15 10.2 0
-15 10.5 0
-15 10.8 0
-15 11.1 0
-15 11.4 0
-15 11.7 0
-15 12 0
-15 12.3 0
-15 12.6 0
-15 12.9 0
-15 13.2 0
-15 13.5 0
-15 13.8 0
-15 14.1 0
-15 14.4 0
-15 14.7 0
-15 15 0
-14.7 -15 0
-14.7 -14.7 0
-14.7 -14.4 0
-14.7 -14.1 0
-14.7 -13.8 0
-14.7 -13.5 0
-14.7 -13.2 0
-14.7 -12.9 0
-14.7 -12.6 0
-14.7 -12.3 0
-14.7 -12 0
-14.7 -11.7 0
-14.7 -11.4 0
-14.7 -11.1 0
-14.7 -10.8 0
-14.7 -10.5 0
-14.7 -10.2 0
-14.7 -9.9 0
-14.7 -9.6 0
-14.7 -9.3 0
-14.7 -9 0
-14.7 -8.7 0
-14.7 -8.4 0
-14.7 -8.1 0
-14.7 -7.8 0
-14.7 -7.5 0
-14.7 -7.2 0
-14.7 -6.9 0
-14.7 -6.6 0
-14.7 -6.3 0
-14.7 -6 0
-14.7 -5.7 0
-14.7 -5.4 0
-14.7 -5.1 0
-14.7 -4.8 0
-14.7 -4.5 0
-14.7 -4.2 0
-14.7 -3.9 0
-14.7 -3.6 0
-14.7 -3.3 0
-14.7 -3 0
-14.7 -2.7 0
-14.7 -2.4 0
-14.7 -2.1 0
-14.7 -1.8 0
-14.7 -1.5 0
-14.7 -1.2 0
-14.7 -0.9 0
-14.7 -0.6 0
-14.7 -0.3 0
-14.7 0 0
-14.7 0.3 0
-14.7 0.6 0
-14.7 0.9 0
-14.7 1.2 0
-14.7 1.5 0
-14.7 1.8 0
-14.7 2.1 0
-14.7 2.4 0
-14.7 2.7 0
-14.7 3 0
-14.7 3.3 0
-14.7 3.6 0
-14.7 3.9 0
-14.7 4.2 0
-14.7 4.5 0
-14.7 4.8 0
-14.7 5.1 0
-14.7 5.4 0
-14.7 5.7 0
-14.7 6 0
-14.7 6.3 0
-14.7 6.6 0
-14.7 6.9 0
-14.7 7.2 0
-14.7 7.5 0
-14.7 7.8 0
-14.7 8.1 0
-14.7 8.4 0
-14.7 8.7 0
-14.7 9 0
-14.7 9.3 0
-14.7 9.6 0
-14.7 9.9 0
-14.7 10.2 0
-14.7 10.5 0
-14.7 10.8 0
-14.7 11.1 0
-14.7 11.4 0
-14.7 11.7 0
-14.7 12 0
-14.7 12.3 0
-14.7 12.6 0
-14.7 12.9 0
-14.7 13.2 0
-14.7 13.5 0
-14.7 13.8 0
-14.7 14.1 0
-14.7 14.4 0
-14.7 14.7 0
-14.7 15 0
-14.4 -15 0
-14.4 -14.7 0
-14.4 -14.4 0
-14.4 -14.1 0
-14.4 -13.8 0
-14.4 -13.5 0
-14.4 -13.2 0
-14.4 -12.9 0
-14.4 -12.6 0
-14.4 -12.3 0
-14.4 -12 0
-14.4 -11.7 0
-14.4 -11.4 0
-14.4 -11.1 0
-14.4 -10.8 0
-14.4 -10.5 0
-14.4 -10.2 0
-14.4 -9.9 0
-14.4 -9.6 0
-14.4 -9.3 0
-14.4 -9 0
-14.4 -8.7 0
-14.4 -8.4 0
-14.4 -8.1 0
-14.4 -7.8 0
-14.4 -7.5 0
-14.4 -7.2 0
-14.4 -6.9 0
-14.4 -6.6 0
-14.4 -6.3 0
-14.4 -6 0
-14.4 -5.7 0
-14.4 -5.4 0
-14.4 -5.1 0
-14.4 -4.8 0
-14.4 -4.5 0
-14.4 -4.2 0
-14.4 -3.9 0
-14.4 -3.6 0
-14.4 -3.3 0
-14.4 -3 0
-14.4 -2.7 0
-14.4 -2.4 0
-14.4 -2.1 0
-14.4 -1.8 0
-14.4 -1.5 0
-14.4 -1.2 0
-14.4 -0.9 0
-14.4 -0.6 0
-14.4 -0.3 0
-14.4 0 0
-14.4 0.3 0
-14.4 0.6 0
-14.4 0.9 0
-14.4 1.2 0
-14.4 1.5 0
-14.4 1.8 0
-14.4 2.1 0
-14.4 2.4 0
-14.4 2.7 0
-14.4 3 0
-14.4 3.3 0
-14.4 3.6 0
-14.4 3.9 0
-14.4 4.2 0
-14.4 4.5 0
-14.4 4.8 0
-14.4 5.1 0
-14.4 5.4 0
-14.4 5.7 0
-14.4 6 0
-14.4 6.3 0
-14.4 6.6 0
-14.4 6.9 0
-14.4 7.2 0
-14.4 7.5 0
-14.4 7.8 0
-14.4 8.1 0
-14.4 8.4 0
-14.4 8.7 0
-14.4 9 0
-14.4 9.3 0
-14.4 9.6 0
-14.4 9.9 0
-14.4 10.2 0
-14.4 10.5 0
-14.4 10.8 0
-14.4 11.1 0
-14.4 11.4 0
-14.4 11.7 0
-14.4 12 0
-14.4 12.3 0
-14.4 12.6 0
-14.4 12.9 0
-14.4 13.2 0
-14.4 13.5 0
-14.4 13.8 0
-14.4 14.1 0
-14.4 14.4 0
-14.4 14.7 0
-14.4 15 0
-14.1 -15 0
-14.1 -14.7 0
-14.1 -14.4 0
-14.1 -14.1 0
-14.1 -13.8 0
-14.1 -13.5 0
-14.1 -13.2 0
-14.1 -12.9 0
-14.1 -12.6 0
-14.1 -12.3 0
-14.1 -12 0
-14.1 -11.7 0
-14.1 -11.4 0
-14.1 -11.1 0
-14.1 -10.8 0
-14.1 -10.5 0
-14.1 -10.2 0
-14.1 -9.9 0
-14.1 -9.6 0
-14.1 -9.3 0
-14.1 -9 0
-14.1 -8.7 0
-14.1 -8.4 0
-14.1 -8.1 0
-14.1 -7.8 0
-14.1 -7.5 0
-14.1 -7.2 0
-14.1 -6.9 0
-14.1 -6.6 0
-14.1 -6.3 0
-14.1 -6 0
-14.1 -5.7 0
-14.1 -5.4 0
-14.1 -5.1 0
-14.1 -4.8 0
-14.1 -4.5 0
-14.1 -4.2 0
-14.1 -3.9 0
-14.1 -3.6 0
-14.1 -3.3 0
-14.1 -3 0
-14.1 -2.7 0
-14.1 -2.4 0
-14.1 -2.1 0
-14.1 -1.8 0
-14.1 -1.5 0
-14.1 -1.2 0
-14.1 -0.9 0
-14.1 -0.6 0
-14.1 -0.3 0
-14.1 0 0
-14.1 0.3 0
-14.1 0.6 0
-14.1 0.9 0
-14.1 1.2 0
-14.1 1.5 0
-14.1 1.8 0
-14.1 2.1 0
-14.1 2.4 0
-14.1 2.7 0
-14.1 3 0
-14.1 3.3 0
-14.1 3.6 0
-14.1 3.9 0
-14.1 4.2 0
-14.1 4.5 0
-14.1 4.8 0
-14.1 5.1 0
-14.1 5.4 0
-14.1 5.7 0
-14.1 6 0
-14.1 6.3 0
-14.1 6.6 0
-14.1 6.9 0
-14.1 7.2 0
-14.1 7.5 0
-14.1 7.8 0
-14.1 8.1 0
-14.1 8.4 0
-14.1 8.7 0
-14.1 9 0
-14.1 9.3 0
-14.1 9.6 0
-14.1 9.9 0
-14.1 10.2 0
-14.1 10.5 0
-14.1 10.8 0
-14.1 11.1 0
-14.1 11.4 0
-14.1 11.7 0
-14.1 12 0
-14.1 12.3 0
-14.1 12.6 0
-14.1 12.9 0
-14.1 13.2 0
-14.1 13.5 0
-14.1 13.8 0
-14.1 14.1 0
-14.1 14.4 0
-14.1 14.7 0
-14.1 15 0
-13.8 -15 0
-13.8 -14.7 0
-13.8 -14.4 0
-13.8 -14.1 0
-13.8 -13.8 0
-13.8 -13.5 0
-13.8 -13.2 0
-13.8 -12.9 0
-13.8 -12.6 0
-13.8 -12.3 0
-13.8 -12 0
-13.8 -11.7 0
-13.8 -11.4 0
-13.8 -11.1 0
-13.8 -10.8 0
-13.8 -10.5 0
-13.8 -10.2 0
-13.8 -9.9 0
-13.8 -9.6 0
-13.8 -9.3 0
-13.8 -9 0
-13.8 -8.7 0
-13.8 -8.4 0
-13.8 -8.1 0
-13.8 -7.8 0
-13.8 -7.5 0
-13.8 -7.2 0
-13.8 -6.9 0
-13.8 -6.6 0
-13.8 -6.3 0
-13.8 -6 0
-13.8 -5.7 0
-13.8 -5.4 0
-13.8 -5.1 0
-13.8 -4.8 0
-13.8 -4.5 0
-13.8 -4.2 0
-13.8 -3.9 0
-13.8 -3.6 0
-13.8 -3.3 0
-13.8 -3 0
-13.8 -2.7 0
-13.8 -2.4 0
-13.8 -2.1 0
-13.8 -1.8 0
-13.8 -1.5 0
-13.8 -1.2 0
-13.8 -0.9 0
-13.8 -0.6 0
-13.8 -0.3 0
-13.8 0 0
-13.8 0.3 0
-13.8 0.6 0
-13.8 0.9 0
-13.8 1.2 0
-13.8 1.5 0
-13.8 1.8 0
-13.8 2.1 0
-13.8 2.4 0
-13.8 2.7 0
-13.8 3 0
-13.8 3.3 0
-13.8 3.6 0
-13.8 3.9 0
-13.8 4.2 0
-13.8 4.5 0
-13.8 4.8 0
-13.8 5.1 0
-13.8 5.4 0
-13.8 5.7 0
-13.8 6 0
-13.8 6.3 0
-13.8 6.6 0
-13.8 6.9 0
-13.8 7.2 0
-13.8 7.5 0
-13.8 7.8 0
-13.8 8.1 0
-13.8 8.4 0
-13.8 8.7 0
-13.8 9 0
-13.8 9.3 0
-13.8 9.6 0
-13.8 9.9 0
-13.8 10.2 0
-13.8 10.5 0
-13.8 10.8 0
-13.8 11.1 0
-13.8 11.4 0
-13.8 11.7 0
-13.8 12 0
-13.8 12.3 0
-13.8 12.6 0
-13.8 12.9 0
-13.8 13.2 0
-13.8 13.5 0
-13.8 13.8 0
-13.8 14.1 0
-13.8 14.4 0
-13.8 14.7 0
-13.8 15 0
-13.5 -15 0
-13.5 -14.7 0
-13.5 -14.4 0
-13.5 -14.1 0
-13.5 -13.8 0
-13.5 -13.5 0
-13.5 -13.2 0
-13.5 -12.9 0
-13.5 -12.6 0
-13.5 -12.3 0
-13.5 -12 0
-13.5 -11.7 0
-13.5 -11.4 0
-13.5 -11.1 0
-13.5 -10.8 0
-13.5 -10.5 0
-13.5 -10.2 0
-13.5 -9.9 0
-13.5 -9.6 0
-13.5 -9.3 0
-13.5 -9 0
-13.5 -8.7 0
-13.5 -8.4 0
-13.5 -8.1 0
-13.5 -7.8 0
-13.5 -7.5 0
-13.5 -7.2 0
-13.5 -6.9 0
-13.5 -6.6 0
-13.5 -6.3 0
-13.5 -6 0
-13.5 -5.7 0
-13.5 -5.4 0
-13.5 -5.1 0
-13.5 -4.8 0
-13.5 -4.5 0
-13.5 -4.2 0
-13.5 -3.9 0
-13.5 -3.6 0
-13.5 -3.3 0
-13.5 -3 0
-13.5 -2.7 0
-13.5 -2.4 0
-13.5 -2.1 0
-13.5 -1.8 0
-13.5 -1.5 0
-13.5 -1.2 0
-13.5 -0.9 0
-13.5 -0.6 0
-13.5 -0.3 0
-13.5 0 0
-13.5 0.3 0
-13.5 0.6 0
-13.5 0.9 0
-13.5 1.2 0
-13.5 1.5 0
-13.5 1.8 0
-13.5 2.1 0
-13.5 2.4 0
-13.5 2.7 0
-13.5 3 0
-13.5 3.3 0
-13.5 3.6 0
-13.5 3.9 0
-13.5 4.2 0
-13.5 4.5 0
-13.5 4.8 0
-13.5 5.1 0
-13.5 5.4 0
-13.5 5.7 0
-13.5 6 0
-13.5 6.3 0
-13.5 6.6 0
-13.5 6.9 0
-13.5 7.2 0
-13.5 7.5 0
-13.5 7.8 0
-13.5 8.1 0
-13.5 8.4 0
-13.5 8.7 0
-13.5 9 0
-13.5 9.3 0
-13.5 9.6 0
-13.5 9.9 0
-13.5 10.2 0
-13.5 10.5 0
-13.5 10.8 0
-13.5 11.1 0
-13.5 11.4 0
-13.5 11.7 0
-13.5 12 0
-13.5 12.3 0
-13.5 12.6 0
-13.5 12.9 0
-13.5 13.2 0
-13.5 13.5 0
-13.5 13.8 0
-13.5 14.1 0
-13.5 14.4 0
-13.5 14.7 0
-13.5 15 0
-13.2 -15 0
-13.2 -14.7 0
-13.2 -14.4 0
-13.2 -14.1 0
-13.2 -13.8 0
-13.2 -13.5 0
-13.2 -13.2 0
-13.2 -12.9 0
-13.2 -12.6 0
-13.2 -12.3 0
-13.2 -12 0
-13.2 -11.7 0
-13.2 -11.4 0
-13.2 -11.1 0
-13.2 -10.8 0
-13.2 -10.5 0
-13.2 -10.2 0
-13.2 -9.9 0
-13.2 -9.6 0
-13.2 -9.3 0
-13.2 -9 0
-13.2 -8.7 0
-13.2 -8.4 0
-13.2 -8.1 0
-13.2 -7.8 0
-13.2 -7.5 0
-13.2 -7.2 0
-13.2 -6.9 0
-13.2 -6.6 0
-13.2 -6.3 0
-13.2 -6 0
-13.2 -5.7 0
-13.2 -5.4 0
-13.2 -5.1 0
-13.2 -4.8 0
-13.2 -4.5 0
-13.2 -4.2 0
-13.2 -3.9 0
-13.2 -3.6 0
-13.2 -3.3 0
-13.2 -3 0
-13.2 -2.7 0
-13.2 -2.4 0
-13.2 -2.1 0
-13.2 -1.8 0
-13.2 -1.5 0
-13.2 -1.2 0
-13.2 -0.9 0
-13.2 -0.6 0
-13.2 -0.3 0
-13.2 0 0
-13.2 0.3 0
-13.2 0.6 0
-13.2 0.9 0
-13.2 1.2 0
-13.2 1.5 0
-13.2 1.8 0
-13.2 2.1 0
-13.2 2.4 0
-13.2 2.7 0
-13.2 3 0
-13.2 3.3 0
-13.2 3.6 0
-13.2 3.9 0
-13.2 4.2 0
-13.2 4.5 0
-13.2 4.8 0
-13.2 5.1 0
-13.2 5.4 0
-13.2 5.7 0
-13.2 6 0
-13.2 6.3 0
-13.2 6.6 0
-13.2 6.9 0
-13.2 7.2 0
-13.2 7.5 0
-13.2 7.8 0
-13.2 8.1 0
-13.2 8.4 0
-13.2 8.7 0
-13.2 9 0
-13.2 9.3 0
-13.2 9.6 0
-13.2 9.9 0
-13.2 10.2 0
-13.2 10.5 0
-13.2 10.8 0
-13.2 11.1 0
-13.2 11.4 0
-13.2 11.7 0
-13.2 12 0
-13.2 12.3 0
-13.2 12.6 0
-13.2 12.9 0
-13.2 13.2 0
-13.2 13.5 0
-13.2 13.8 0
-13.2 14.1 0
-13.2 14.4 0
-13.2 14.7 0
-13.2 15 0
-12.9 -15 0
-12.9 -14.7 0
-12.9 -14.4 0
-12.9 -14.1 0
-12.9 -13.8 0
-12.9 -13.5 0
-12.9 -13.2 0
-12.9 -12.9 0
-12.9 -12.6 0
-12.9 -12.3 0
-12.9 -12 0
-12.9 -11.7 0
-12.9 -11.4 0
-12.9 -11.1 0
-12.9 -10.8 0
-12.9 -10.5 0
-12.9 -10.2 0
-12.9 -9.9 0
-12.9 -9.6 0
-12.9 -9.3 0
-12.9 -9 0
-12.9 -8.7 0
-12.9 -8.4 0
-12.9 -8.1 0
-12.9 -7.8 0
-12.9 -7.5 0
-12.9 -7.2 0
-12.9 -6.9 0
-12.9 -6.6 0
-12.9 -6.3 0
-12.9 -6 0
-12.9 -5.7 0
-12.9 -5.4 0
-12.9 -5.1 0
-12.9 -4.8 0
-12.9 -4.5 0
-12.9 -4.2 0
-12.9 -3.9 0
-12.9 -3.6 0
-12.9 -3.3 0
-12.9 -3 0
-12.9 -2.7 0
-12.9 -2.4 0
-12.9 -2.1 0
-12.9 -1.8 0
-12.9 -1.5 0
-12.9 -1.2 0
-12.9 -0.9 0
-12.9 -0.6 0
-12.9 -0.3 0
-12.9 0 0
-12.9 0.3 0
-12.9 0.6 0
-12.9 0.9 0
-12.9 1.2 0
-12.9 1.5 0
-12.9 1.8 0
-12.9 2.1 0
-12.9 2.4 0
-12.9 2.7 0
-12.9 3 0
-12.9 3.3 0
-12.9 3.6 0
-12.9 3.9 0
-12.9 4.2 0
-12.9 4.5 0
-12.9 4.8 0
-12.9 5.1 0
-12.9 5.4 0
-12.9 5.7 0
-12.9 6 0
-12.9 6.3 0
-12.9 6.6 0
-12.9 6.9 0
-12.9 7.2 0
-12.9 7.5 0
-12.9 7.8 0
-12.9 8.1 0
-12.9 8.4 0
-12.9 8.7 0
-12.9 9 0
[...]
            <PointData>
                <DataArray type="Float64" Name="c1" format="ascii">
0.00392755 0.003932 0.00394538 0.00396769 0.00399896 0.00403926 0.00408863 0.00414715 0.00421491 0.00429199 0.00437852 0.00447461 0.00458039 0.00469601 0.00482161 0.00495734 0.00510335 0.00525979 0.00542679 0.00560446 0.0057929 0.00599214 0.00620219 0.00642298 0.0066544 0.00689624 0.00714826 0.00741013 0.00768153 0.0079621 0.00825153 0.0085495 0.00885564 0.0091694 0.00948999 0.00981628 0.0101453 0.0104699 0.0107779 0.011051 0.0112877 0.0115065 0.0117169 0.011922 0.0121208 0.0123094 0.0124807 0.0126272 0.0127468 0.0128409 0.0129118 0.012961 0.0129847 0.012969 0.0129089 0.0128047 0.0126625 0.012502 0.0123368 0.0121737 0.0120147 0.011859 0.0117033 0.0115422 0.0113692 0.0111793 0.0109704 0.0107419 0.0104946 0.0102307 0.00995387 0.00966874 0.00938004 0.00909205 0.00880816 0.00853085 0.00826184 0.00800225 0.00775281 0.00751399 0.00728608 0.00706923 0.00686354 0.00666905 0.00648579 0.00631373 0.00615288 0.0060032 0.00586469 0.00573731 0.00562106 0.00551591 0.00542186 0.00533889 0.005267 0.00520618 0.00515642 0.00511773 0.00509009 0.0050735 0.00506798 
0.00392858 0.00393304 0.00394643 0.00396875 0.00400006 0.00404039 0.00408981 0.00414838 0.0042162 0.00429336 0.00437997 0.00447615 0.00458204 0.00469777 0.00482351 0.00495938 0.00510556 0.00526218 0.00542938 0.00560727 0.00579594 0.00599544 0.00620576 0.00642685 0.00665859 0.00690079 0.00715319 0.0074155 0.00768739 0.00796854 0.00825869 0.00855763 0.0088651 0.00918064 0.00950356 0.00983341 0.0101684 0.0105014 0.0108198 0.0110944 0.0113218 0.0115357 0.0117446 0.0119504 0.0121515 0.0123437 0.0125184 0.0126654 0.0127834 0.0128749 0.012944 0.0129938 0.0130234 0.0130092 0.0129487 0.0128411 0.0126892 0.0125222 0.012354 0.0121901 0.0120316 0.0118774 0.0117241 0.0115659 0.011395 0.0112061 0.0109973 0.0107685 0.0105198 0.0102536 0.00997416 0.00968634 0.0093952 0.00910516 0.00881964 0.00854104 0.008271 0.00801056 0.0077604 0.00752095 0.00729247 0.00707511 0.00686895 0.00667403 0.00649037 0.00631795 0.00615676 0.00600679 0.005868 0.00574038 0.00562391 0.00551857 0.00542435 0.00534124 0.00526922 0.0052083 0.00515846 0.0051197 0.00509201 0.0050754 0.00506987 
0.00393168 0.00393615 0.00394957 0.00397195 0.00400334 0.00404378 0.00409333 0.00415206 0.00422007 0.00429744 0.0043843 0.00448076 0.00458697 0.00470306 0.00482919 0.00496551 0.00511218 0.00526934 0.00543713 0.00561566 0.00580504 0.0060053 0.00621645 0.00643843 0.00667114 0.00691438 0.00716793 0.0074315 0.00770479 0.00798756 0.00827971 0.00858136 0.0088927 0.00921342 0.00954268 0.00988244 0.0102363 0.010604 0.0109554 0.0112355 0.011419 0.011619 0.0118247 0.0120331 0.0122415 0.0124461 0.0126346 0.0127821 0.0128937 0.0129766 0.0130376 0.0130865 0.013143 0.0131315 0.0130702 0.0129562 0.0127658 0.0125788 0.0124033 0.0122379 0.0120811 0.0119315 0.0117859 0.0116371 0.011473 0.0112867 0.0110786 0.0108497 0.0105973 0.0103234 0.0100353 0.00973899 0.00944036 0.00914415 0.00885376 0.00857136 0.00829829 0.00803536 0.00778308 0.00754176 0.0073116 0.0070927 0.00688513 0.00668892 0.00650407 0.00633057 0.00616839 0.00601751 0.00587791 0.00574956 0.00563244 0.00552653 0.00543181 0.00534826 0.00527587 0.00521463 0.00516454 0.00512559 0.00509777 0.00508108 0.00507552 
0.00393682 0.00394131 0.00395478 0.00397727 0.00400879 0.00404941 0.00409918 0.00415817 0.00422649 0.00430422 0.00439149 0.00448842 0.00459516 0.00471184 0.00483863 0.00497568 0.00512316 0.00528122 0.00544999 0.0056296 0.00582014 0.00602167 0.00623418 0.00645763 0.00669192 0.00693688 0.00719229 0.00745786 0.0077333 0.00801842 0.00831333 0.00861877 0.00893605 0.00926538 0.0096028 0.00995511 0.0103492 0.0107276 0.0110443 0.0112943 0.011546 0.0117417 0.0119478 0.0121629 0.0123838 0.0126142 0.0128426 0.0129838 0.0130797 0.0131445 0.0131851 0.01321 0.0132169 0.0131864 0.013122 0.0130189 0.0128719 0.0126585 0.0124783 0.0123137 0.0121603 0.0120182 0.0118861 0.0117574 0.0116057 0.011422 0.0112153 0.0109912 0.0107342 0.0104431 0.0101379 0.00982616 0.00951448 0.00920794 0.00890961 0.0086211 0.00834319 0.00807627 0.00782056 0.0075762 0.00734328 0.00712187 0.00691198 0.00671363 0.00652681 0.00635151 0.00618768 0.00603531 0.00589436 0.0057648 0.0056466 0.00553973 0.00544417 0.0053599 0.0052869 0.00522515 0.00517464 0.00513537 0.00510733 0.0050905 0.00508489 
0.00394397 0.00394849 0.00396204 0.00398466 0.00401638 0.00405724 0.00410731 0.00416668 0.00423542 0.00431366 0.0044015 0.00449908 0.00460655 0.00472406 0.00485176 0.00498984 0.00513845 0.00529775 0.00546789 0.00564899 0.00584115 0.00604443 0.00625883 0.00648432 0.00672079 0.0069681 0.00722601 0.00749423 0.00777239 0.00806017 0.00835771 0.00866656 0.008991 0.00933519 0.00967855 0.0100291 0.010401 0.0107233 0.0109753 0.0112422 0.0115972 0.0118884 0.0121004 0.0123287 0.0125606 0.0128311 0.0129902 0.0131001 0.0131737 0.0132182 0.013234 0.0132287 0.0131852 0.0131492 0.0130923 0.0130108 0.0129249 0.0127377 0.0125734 0.0124151 0.0122656 0.0121314 0.0120172 0.0119312 0.0117995 0.0116107 0.0114037 0.011205 0.0109487 0.0106162 0.0102819 0.00994602 0.00961533 0.00929452 0.00898563 0.00868912 0.00840489 0.0081327 0.00787242 0.00762395 0.00738727 0.00716239 0.0069493 0.00674799 0.00655844 0.00638063 0.00621452 0.00606007 0.00591724 0.005786 0.00566629 0.00555809 0.00546137 0.00537609 0.00530223 0.00523977 0.00518869 0.00514897 0.00512061 0.0051036 0.00509793 
0.0039531 0.00395765 0.00397131 0.0039941 0.00402605 0.00406723 0.00411769 0.00417752 0.00424682 0.00432569 0.00441426 0.00451268 0.00462108 0.00473964 0.00486851 0.00500789 0.00515794 0.00531883 0.00549072 0.00567373 0.00586796 0.00607347 0.00629028 0.00651834 0.00675757 0.00700783 0.00726888 0.00754037 0.00782176 0.00811227 0.00841124 0.00872007 0.00904907 0.00938299 0.009715 0.0100519 0.0103568 0.0106537 0.0109182 0.0111977 0.0115324 0.0119457 0.0122631 0.0125245 0.0127353 0.0129475 0.0130176 0.0131028 0.013167 0.0132046 0.0132134 0.0132057 0.0132 0.013185 0.0131425 0.0130652 0.0129563 0.0128364 0.0126981 0.0125457 0.0123944 0.0122622 0.0121541 0.0120627 0.0119988 0.0118437 0.0116128 0.0113989 0.0111467 0.0108313 0.0104622 0.0100937 0.00973859 0.00940065 0.00907958 0.00877395 0.0084824 0.00820398 0.00793815 0.00768461 0.00744324 0.007214 0.00699685 0.00679177 0.00659875 0.00641775 0.00624873 0.00609163 0.0059464 0.00581301 0.00569138 0.00558149 0.00548328 0.00539672 0.00532176 0.00525839 0.00520658 0.0051663 0.00513754 0.00512029 0.00511454 
0.00396414 0.00396873 0.00398252 0.00400551 0.00403776 0.00407932 0.00413026 0.00419065 0.00426062 0.00434026 0.00442971 0.00452913 0.00463866 0.00475849 0.00488878 0.00502974 0.00518153 0.00534435 0.00551835 0.00570367 0.00590041 0.00610864 0.00632836 0.00655954 0.0068021 0.00705589 0.00732072 0.00759622 0.0078817 0.00817571 0.00847522 0.00877546 0.00909768 0.00940937 0.00972115 0.0100294 0.01033 0.0106304 0.0108959 0.0111791 0.0115204 0.0119287 0.0123238 0.0126132 0.01286 0.0129803 0.013062 0.0131407 0.0132035 0.0132453 0.0132646 0.0132664 0.0132863 0.013304 0.0132813 0.0132052 0.0130656 0.0129989 0.012875 0.0127158 0.0125459 0.0124101 0.0122671 0.0121558 0.0120784 0.0119684 0.011766 0.0114988 0.0112352 0.0109976 0.0106732 0.0102601 0.00987714 0.00952179 0.00918877 0.00887397 0.00857471 0.00828941 0.00801723 0.00775777 0.00751083 0.00727636 0.00705433 0.00684472 0.0066475 0.00646264 0.00629009 0.00612978 0.00598166 0.00584566 0.00572171 0.00560977 0.00550976 0.00542164 0.00534537 0.0052809 0.00522819 0.00518723 0.00515799 0.00514045 0.0051346 
0.00397704 0.00398168 0.00399561 0.00401885 0.00405144 0.00409345 0.00414493 0.00420599 0.00427673 0.00435727 0.00444776 0.00454834 0.0046592 0.0047805 0.00491245 0.00505525 0.00520908 0.00537415 0.00555063 0.00573867 0.00593836 0.00614978 0.00637294 0.00660778 0.00685422 0.00711214 0.00738138 0.00766177 0.00795292 0.00825367 0.00855976 0.00885299 0.00916112 0.00946656 0.00977153 0.0100746 0.0103804 0.0106496 0.0109038 0.0111617 0.0115566 0.0119466 0.0123116 0.0126251 0.0129029 0.0130038 0.0131354 0.0132232 0.0132928 0.0133466 0.0133898 0.0134249 0.0134865 0.0135343 0.0135262 0.0134615 0.0133363 0.0132669 0.0131295 0.0129414 0.0127098 0.0125322 0.0123599 0.0122449 0.0121482 0.0120294 0.0118464 0.0115932 0.0113215 0.0110547 0.0108084 0.0104276 0.0100206 0.00965278 0.0093107 0.00898788 0.00868103 0.00838843 0.00810922 0.00784301 0.00758967 0.00734914 0.00712143 0.00690652 0.0067044 0.00651503 0.00633834 0.00617428 0.00602277 0.00588373 0.00575708 0.00564273 0.00554063 0.0054507 0.00537288 0.00530712 0.00525338 0.00521162 0.00518181 0.00516394 0.00515798 
0.00399172 0.00399642 0.00401051 0.00403403 0.00406701 0.00410952 0.00416163 0.00422344 0.00429507 0.00437663 0.00446829 0.00457021 0.00468256 0.00480555 0.00493939 0.00508428 0.00524044 0.00540808 0.0055874 0.00577855 0.00598165 0.00619676 0.00642388 0.00666296 0.00691386 0.00717646 0.00745068 0.00773666 0.00803495 0.00834711 0.00867987 0.00897619 0.00925251 0.00955193 0.0098655 0.0101859 0.0104872 0.0107296 0.0109774 0.0112708 0.0116396 0.0120104 0.012353 0.0126773 0.0129554 0.0131413 0.0132664 0.0133586 0.0134367 0.0135042 0.0135872 0.0137131 0.0138121 0.0138752 0.0138862 0.0138511 0.0137657 0.0136492 0.0134823 0.0132604 0.012974 0.0126577 0.0124938 0.012384 0.012276 0.0121511 0.0119713 0.011715 0.0114312 0.0111444 0.0108632 0.0105512 0.0101569 0.00979043 0.00944443 0.00911531 0.0088011 0.00850075 0.00821378 0.00794 0.00767939 0.00743197 0.00719777 0.00697682 0.00676911 0.00657459 0.0063932 0.00622486 0.00606949 0.00592698 0.00579724 0.00568017 0.00557568 0.00548368 0.00540411 0.00533689 0.00528197 0.0052393 0.00520885 0.00519059 0.00518451 
0.0040081 0.00401286 0.00402713 0.00405096 0.00408437 0.00412745 0.00418026 0.00424291 0.00431552 0.00439823 0.0044912 0.0045946 0.00470863 0.00483349 0.00496942 0.00511665 0.00527542 0.00544595 0.00562845 0.00582312 0.00603008 0.0062494 0.00648109 0.00672503 0.00698105 0.00724894 0.00752859 0.00782025 0.0081246 0.00844125 0.00878027 0.00908805 0.00935605 0.00965606 0.00996987 0.0102745 0.010561 0.0108425 0.0111355 0.0114443 0.0117547 0.0121167 0.0124433 0.0128116 0.0131296 0.0133451 0.0134376 0.0135442 0.0136338 0.0136985 0.0138767 0.014086 0.0142281 0.0143147 0.0143503 0.0143429 0.0142746 0.0141335 0.0139428 0.0136984 0.0133922 0.0130118 0.0127463 0.0126255 0.0124983 0.0123534 0.0121521 0.011882 0.011581 0.0112782 0.010979 0.0106566 0.010298 0.00994003 0.00959235 0.00925727 0.00893525 0.00862637 0.00833072 0.00804843 0.00777963 0.00752446 0.00728298 0.00705525 0.00684126 0.00664097 0.00645432 0.0062812 0.00612151 0.00597513 0.00584194 0.00572182 0.00561467 0.00552037 0.00543884 0.00537 0.00531376 0.00527009 0.00523892 0.00522024 0.00521401 
0.00402608 0.0040309 0.00404538 0.00406954 0.00410344 0.00414713 0.00420071 0.00426429 0.00433798 0.00442194 0.00451634 0.00462137 0.00473723 0.00486416 0.00500239 0.00515219 0.00531382 0.00548753 0.00567357 0.00587215 0.00608344 0.00630754 0.00654444 0.006794 0.00705597 0.00732998 0.00761574 0.00791359 0.00822521 0.00855419 0.00885735 0.00916391 0.00946228 0.00976649 0.0100619 0.0103598 0.0106589 0.0109701 0.0112928 0.0116034 0.0119353 0.0122717 0.0126152 0.0129848 0.0133141 0.0135441 0.0137042 0.0138286 0.0139286 0.0140455 0.0143074 0.0145588 0.0147384 0.0148464 0.0149005 0.0149231 0.0149024 0.0147234 0.0145144 0.0142569 0.0139436 0.0135817 0.0132061 0.0129896 0.0128422 0.0126401 0.0124039 0.0121266 0.0117923 0.0114699 0.0111618 0.010826 0.0104703 0.0101115 0.00975858 0.00941554 0.00908417 0.00876542 0.00845989 0.008168 0.00789004 0.0076262 0.00737663 0.00714137 0.00692044 0.00671378 0.00652132 0.00634293 0.00617849 0.00602785 0.00589088 0.00576742 0.00565734 0.00556052 0.00547684 0.00540621 0.00534854 0.00530376 0.00527181 0.00525266 0.00524628 
0.00404555 0.00405045 0.00406515 0.00408968 0.00412409 0.00416846 0.00422287 0.00428745 0.00436231 0.00444763 0.00454359 0.00465037 0.00476822 0.00489737 0.0050381 0.00519068 0.00535541 0.00553258 0.00572248 0.00592537 0.00614147 0.00637093 0.00661378 0.00686989 0.00713891 0.00742021 0.00771303 0.0080169 0.00833323 0.00864246 0.00894754 0.00926897 0.00958862 0.00990761 0.0102036 0.0104854 0.0107853 0.011119 0.0114689 0.0117987 0.0121803 0.0125436 0.0129032 0.0132591 0.0135995 0.0138572 0.0140712 0.0142529 0.0143984 0.0146145 0.0148735 0.0151222 0.0153486 0.0154667 0.0155216 0.0155486 0.0155647 0.015401 0.0151964 0.0149352 0.0146085 0.0142292 0.0138415 0.0135158 0.0132731 0.0130253 0.0127617 0.0124838 0.0121062 0.011756 0.0114062 0.0110463 0.0106779 0.0103089 0.00994559 0.00959138 0.0092484 0.00891803 0.00860116 0.00829841 0.0080102 0.00773676 0.00747826 0.00723474 0.00700621 0.00679259 0.0065938 0.00640967 0.00624007 0.00608481 0.00594372 0.00581664 0.0057034 0.00560384 0.00551785 0.00544529 0.00538606 0.00534008 0.00530728 0.00528763 0.00528108 
0.00406641 0.00407138 0.00408632 0.00411124 0.00414621 0.00419131 0.00424661 0.00431226 0.00438838 0.00447516 0.00457277 0.00468144 0.00480141 0.00493294 0.00507633 0.00523188 0.00539993 0.00558081 0.00577487 0.00598243 0.0062038 0.00643922 0.00668883 0.00695258 0.0072301 0.00752048 0.007822 0.00813156 0.00844303 0.00874098 0.00906867 0.00940043 0.00973607 0.0100707 0.0103812 0.0106521 0.0109417 0.0113034 0.0116686 0.0120803 0.0124972 0.0128859 0.0132757 0.0136204 0.013946 0.0142407 0.0145105 0.0147646 0.0149868 0.0152786 0.0155998 0.0158718 0.0160532 0.016154 0.0162025 0.0162158 0.0162096 0.0161605 0.0160016 0.015749 0.0153985 0.0149575 0.0145773 0.0141406 0.0137958 0.0134926 0.0131913 0.0129 0.0125269 0.0121109 0.0117091 0.0113125 0.0109196 0.0105326 0.0101539 0.00978515 0.0094281 0.00908411 0.00875426 0.0084393 0.00813967 0.00785565 0.00758736 0.00733484 0.00709806 0.00687692 0.00667129 0.006481 0.00630584 0.00614562 0.00600013 0.00586916 0.00575253 0.00565005 0.00556157 0.00548694 0.00542605 0.00537879 0.0053451 0.0053249 0.00531817 
0.00408853 0.00409359 0.00410877 0.00413412 0.00416968 0.00421554 0.0042718 0.00433858 0.00441604 0.00450436 0.00460373 0.00471439 0.00483661 0.00497066 0.00511686 0.00527556 0.00544712 0.00563192 0.00583039 0.00604292 0.00626995 0.00651188 0.00676905 0.00704165 0.00732951 0.00763171 0.00794601 0.00826782 0.00858889 0.00889667 0.00919404 0.00954757 0.00989745 0.0102416 0.0105569 0.0108666 0.0111706 0.011555 0.0119698 0.0124166 0.0128177 0.0132417 0.0136596 0.0140203 0.0143549 0.0146849 0.0150003 0.0153287 0.0156557 0.0160617 0.0164267 0.0166779 0.016792 0.0168854 0.0169364 0.016949 0.0169401 0.0169384 0.0168032 0.01654 0.0161476 0.0157066 0.0152707 0.0147685 0.0143819 0.0140337 0.0136713 0.0133325 0.012967 0.0125135 0.0120534 0.0116118 0.0111876 0.0107786 0.0103819 0.00999637 0.00962305 0.00926344 0.00891888 0.00859022 0.00827796 0.00798233 0.00770339 0.00744113 0.00719547 0.00696626 0.00675332 0.00655644 0.00637537 0.00620987 0.0060597 0.00592461 0.00580439 0.00569881 0.0056077 0.00553089 0.00546824 0.00541963 0.00538498 0.00536421 0.00535729 
0.00411179 0.00411693 0.00413238 0.00415817 0.00419436 0.00424103 0.00429829 0.00436627 0.00444513 0.00453507 0.0046363 0.00474905 0.00487362 0.00501031 0.00515946 0.00532143 0.00549665 0.00568555 0.00588861 0.00610635 0.00633933 0.00658818 0.00685356 0.00713612 0.00743627 0.00775371 0.0080864 0.00842923 0.00877184 0.00907586 0.00935483 0.00970909 0.0100608 0.0104079 0.0107809 0.0111452 0.0114924 0.0118739 0.0122991 0.0127194 0.0131488 0.0136115 0.0140435 0.0144528 0.0148442 0.0151997 0.0155338 0.0159162 0.0163557 0.0168442 0.0172045 0.0173456 0.0175617 0.0176834 0.0177425 0.0177474 0.0177165 0.0176423 0.017465 0.0171761 0.0168093 0.0164223 0.0158818 0.0154259 0.015024 0.0146141 0.0141874 0.0137603 0.0133533 0.0128853 0.0124132 0.0119232 0.0114684 0.0110403 0.0106273 0.0102244 0.00983303 0.00945577 0.00909461 0.00875069 0.0084245 0.00811618 0.00782572 0.007553 0.00729785 0.00706005 0.00683935 0.0066355 0.00644819 0.00627713 0.00612203 0.00598262 0.00585862 0.00574979 0.00565593 0.00557683 0.00551233 0.00546231 0.00542665 0.00540528 0.00539817 
0.00413604 0.00414128 0.00415701 0.00418326 0.0042201 0.00426762 0.00432592 0.00439516 0.0044755 0.00456713 0.00467028 0.00478522 0.00491224 0.00505167 0.00520387 0.00536924 0.00554823 0.00574134 0.0059491 0.00617215 0.0064112 0.00666713 0.00694101 0.00723418 0.00754817 0.0078842 0.00824178 0.00861723 0.0089477 0.00922643 0.00954258 0.00987048 0.0102116 0.0105879 0.0110107 0.0113971 0.0117828 0.0121865 0.0126081 0.0130407 0.0135136 0.013989 0.0144647 0.0149314 0.0153815 0.0158017 0.0162016 0.0166264 0.0170826 0.0175335 0.0179078 0.0182151 0.0184531 0.0185808 0.018645 0.0186331 0.0185596 0.0184412 0.0182297 0.0179169 0.0175232 0.0170658 0.0165487 0.0160896 0.0156554 0.0152135 0.014715 0.0141933 0.0136889 0.0131747 0.0127113 0.0122178 0.0117423 0.0113113 0.0108902 0.0104701 0.0100584 0.00966098 0.00928107 0.00892014 0.00857864 0.00825655 0.00795369 0.00766979 0.00740455 0.00715767 0.00692882 0.00671765 0.0065238 0.00634693 0.0061867 0.00604277 0.00591484 0.00580263 0.00570589 0.00562441 0.005558 0.00550651 0.00546981 0.00544783 0.0054405 
0.00416116 0.00416649 0.00418251 0.00420924 0.00424677 0.00429516 0.00435456 0.0044251 0.00450696 0.00460035 0.00470551 0.00482271 0.00495226 0.00509451 0.00524984 0.00541869 0.00560153 0.0057989 0.00601141 0.00623976 0.0064848 0.00674762 0.0070297 0.00733318 0.00766115 0.00801777 0.00840553 0.00875352 0.00904023 0.0093475 0.00968524 0.00999968 0.0103625 0.0107609 0.0111885 0.0116241 0.0120494 0.0124885 0.0129299 0.0133847 0.0138865 0.014405 0.0149225 0.0154436 0.0159541 0.0164546 0.0169496 0.0174194 0.0178917 0.0183597 0.0188024 0.0192377 0.0194314 0.0195954 0.0196799 0.0196614 0.0195429 0.0193791 0.0191295 0.0187683 0.0183054 0.0177642 0.0172441 0.0167597 0.0162872 0.0157855 0.015245 0.0146655 0.0140891 0.0135176 0.0129769 0.0125135 0.0120502 0.0115949 0.0111793 0.0107375 0.0103005 0.00987911 0.00947776 0.00909788 0.00873962 0.00840266 0.00808653 0.00779077 0.0075149 0.0072585 0.00702112 0.00680232 0.00660169 0.00641879 0.00625324 0.00610464 0.00597265 0.00585695 0.00575725 0.00567332 0.00560493 0.00555192 0.00551415 0.00549153 0.005484 
0.00418699 0.00419242 0.00420873 0.00423597 0.00427419 0.0043235 0.00438403 0.00445591 0.00453935 0.00463455 0.00474177 0.0048613 0.00499345 0.00513859 0.00529713 0.00546951 0.00565625 0.00585791 0.00607513 0.00630866 0.00655942 0.0068286 0.00711788 0.00742986 0.00776915 0.00814551 0.00851953 0.0088262 0.00913644 0.00945733 0.00978756 0.0101298 0.0105143 0.010934 0.01138 0.0118413 0.0123106 0.0127992 0.0132822 0.0137778 0.0143045 0.0148401 0.015392 0.0159748 0.0165411 0.0171104 0.0176943 0.0182407 0.0187678 0.0192849 0.0197766 0.0202082 0.0205716 0.0208286 0.0209456 0.0209263 0.020768 0.0205387 0.0202136 0.0197744 0.0192161 0.0185844 0.0179763 0.0174415 0.0169359 0.0163909 0.0158088 0.0151854 0.0145624 0.0139667 0.0134164 0.0129216 0.0124291 0.0119603 0.0115245 0.0110325 0.0105599 0.0101096 0.00968384 0.00928296 0.00890649 0.00855358 0.00822338 0.00791512 0.00762814 0.00736182 0.0071156 0.00688893 0.00668129 0.0064922 0.00632117 0.00616778 0.00603163 0.00591236 0.00580964 0.00572319 0.00565279 0.00559823 0.00555936 0.00553609 0.00552833 