<?xml version="1.0"?>
<VTKFile type="StructuredGrid" version="0.1">
    <StructuredGrid WholeExtent="0 100 0 100 0 0">
        <Piece Extent="0 100 0 100 0 0">
            <Points>
                <DataArray type="Float64" NumberOfComponents="3" format="ascii">
-15 -15 0
-15 -14.7 0
-15 -14.4 0
-15 -14.1 0
-15 -13.8 0
-15 -13.5 0
-15 -13.2 0
-15 -12.9 0
-15 -12.6 0
-15 -12.3 0
-15 -12 0
-15 -11.7 0
-15 -11.4 0
-15 -11.1 0
-15 -10.8 0
-15 -10.5 0
-15 -10.2 0
-15 -9.9 0
-15 -9.6 0
-15 -9.3 0
-15 -9 0
-15 -8.7 0
-15 -8.4 0
-15 -8.1 0
-15 -7.8 0
-15 -7.5 0
-15 -7.2 0
-15 -6.9 0
-15 -6.6 0
-15 -6.3 0
-15 -6 0
-15 -5.7 0
-15 -5.4 0
-15 -5.1 0
-15 -4.8 0
-15 -4.5 0
-15 -4.2 0
-15 -3.9 0
-15 -3.6 0
-15 -3.3 0
-15 -3 0
-15 -2.7 0
-15 -2.4 0
-15 -2.1 0
-15 -1.8 0
-15 -1.5 0
-15 -1.2 0
-15 -0.9 0
-15 -0.6 0
-15 -0.3 0
-15 0 0
-15 0.3 0
-15 0.6 0
-15 0.9 0
-15 1.2 0
-15 1.5 0
-15 1.8 0
-15 2.1 0
-15 2.4 0
-15 2.7 0
-15 3 0
-15 3.3 0
-15 3.6 0
-15 3.9 0
-15 4.2 0
-15 4.5 0
-15 4.8 0
-15 5.1 0
-15 5.4 0
-15 5.7 0
-15 6 0
-15 6.3 0
-15 6.6 0
-15 6.9 0
-15 7.2 0
-15 7.5 0
-15 7.8 0
-15 8.1 0
-15 8.4 0
-15 8.7 0
-15 9 0
-15 9.3 0
-15 9.6 0
-15 9.9 0
-15 10.2 0
-15 10.5 0
-15 10.8 0
-15 11.1 0
-15 11.4 0
-15 11.7 0
-15 12 0
-15 12.3 0
-15 12.6 0
-15 12.9 0
-15 13.2 0
-15 13.5 0
-15 13.8 0
-15 14.1 0
-15 14.4 0
-15 14.7 0
-15 15 0
-14.7 -15 0
-14.7 -14.7 0
-14.7 -14.4 0
-14.7 -14.1 0
-14.7 -13.8 0
-14.7 -13.5 0
-14.7 -13.2 0
-14.7 -12.9 0
-14.7 -12.6 0
-14.7 -12.3 0
-14.7 -12 0
-14.7 -11.7 0
-14.7 -11.4 0
-14.7 -11.1 0
-14.7 -10.8 0
-14.7 -10.5 0
-14.7 -10.2 0
-14.7 -9.9 0
-14.7 -9.6 0
-14.7 -9.3 0
-14.7 -9 0
-14.7 -8.7 0
-14.7 -8.4 0
-14.7 -8.1 0
-14.7 -7.8 0
-14.7 -7.5 0
-14.7 -7.2 0
-14.7 -6.9 0
-14.7 -6.6 0
-14.7 -6.3 0
-14.7 -6 0
-14.7 -5.7 0
-14.7 -5.4 0
-14.7 -5.1 0
-14.7 -4.8 0
-14.7 -4.5 0
-14.7 -4.2 0
-14.7 -3.9 0
-14.7 -3.6 0
-14.7 -3.3 0
-14.7 -3 0
-14.7 -2.7 0
-14.7 -2.4 0
-14.7 -2.1 0
-14.7 -1.8 0
-14.7 -1.5 0
-14.7 -1.2 0
-14.7 -0.9 0
-14.7 -0.6 0
-14.7 -0.3 0
-14.7 0 0
-14.7 0.3 0
-14.7 0.6 0
-14.7 0.9 0
-14.7 1.2 0
-14.7 1.5 0
-14.7 1.8 0
-14.7 2.1 0
-14.7 2.4 0
-14.7 2.7 0
-14.7 3 0
-14.7 3.3 0
-14.7 3.6 0
-14.7 3.9 0
-14.7 4.2 0
-14.7 4.5 0
-14.7 4.8 0
-14.7 5.1 0
-14.7 5.4 0
-14.7 5.7 0
-14.7 6 0
-14.7 6.3 0
-14.7 6.6 0
-14.7 6.9 0
-14.7 7.2 0
-14.7 7.5 0
-14.7 7.8 0
-14.7 8.1 0
-14.7 8.4 0
-14.7 8.7 0
-14.7 9 0
-14.7 9.3 0
-14.7 9.6 0
-14.7 9.9 0
-14.7 10.2 0
-14.7 10.5 0
-14.7 10.8 0
-14.7 11.1 0
-14.7 11.4 0
-14.7 11.7 0
-14.7 12 0
-14.7 12.3 0
-14.7 12.6 0
-14.7 12.9 0
-14.7 13.2 0
-14.7 13.5 0
-14.7 13.8 0
-14.7 14.1 0
-14.7 14.4 0
-14.7 14.7 0
-14.7 15 0
-14.4 -15 0
-14.4 -14.7 0
-14.4 -14.4 0
-14.4 -14.1 0
-14.4 -13.8 0
-14.4 -13.5 0
-14.4 -13.2 0
-14.4 -12.9 0
-14.4 -12.6 0
-14.4 -12.3 0
-14.4 -12 0
-14.4 -11.7 0
-14.4 -11.4 0
-14.4 -11.1 0
-14.4 -10.8 0
-14.4 -10.5 0
-14.4 -10.2 0
-14.4 -9.9 0
-14.4 -9.6 0
-14.4 -9.3 0
-14.4 -9 0
-14.4 -8.7 0
-14.4 -8.4 0
-14.4 -8.1 0
-14.4 -7.8 0
-14.4 -7.5 0
-14.4 -7.2 0
-14.4 -6.9 0
-14.4 -6.6 0
-14.4 -6.3 0
-14.4 -6 0
-14.4 -5.7 0
-14.4 -5.4 0
-14.4 -5.1 0
-14.4 -4.8 0
-14.4 -4.5 0
-14.4 -4.2 0
-14.4 -3.9 0
-14.4 -3.6 0
-14.4 -3.3 0
-14.4 -3 0
-14.4 -2.7 0
-14.4 -2.4 0
-14.4 -2.1 0
-14.4 -1.8 0
-14.4 -1.5 0
-14.4 -1.2 0
-14.4 -0.9 0
-14.4 -0.6 0
-14.4 -0.3 0
-14.4 0 0
-14.4 0.3 0
-14.4 0.6 0
-14.4 0.9 0
-14.4 1.2 0
-14.4 1.5 0
-14.4 1.8 0
-14.4 2.1 0
-14.4 2.4 0
-14.4 2.7 0
-14.4 3 0
-14.4 3.3 0
-14.4 3.6 0
-14.4 3.9 0
-14.4 4.2 0
-14.4 4.5 0
-14.4 4.8 0
-14.4 5.1 0
-14.4 5.4 0
-14.4 5.7 0
-14.4 6 0
-14.4 6.3 0
-14.4 6.6 0
-14.4 6.9 0
-14.4 7.2 0
-14.4 7.5 0
-14.4 7.8 0
-14.4 8.1 0
-14.4 8.4 0
-14.4 8.7 0
-14.4 9 0
-14.4 9.3 0
-14.4 9.6 0
-14.4 9.9 0
-14.4 10.2 0
-14.4 10.5 0
-14.4 10.8 0
-14.4 11.1 0
-14.4 11.4 0
-14.4 11.7 0
-14.4 12 0
-14.4 12.3 0
-14.4 12.6 0
-14.4 12.9 0
-14.4 13.2 0
-14.4 13.5 0
-14.4 13.8 0
-14.4 14.1 0
-14.4 14.4 0
-14.4 14.7 0
-14.4 15 0
-14.1 -15 0
-14.1 -14.7 0
-14.1 -14.4 0
-14.1 -14.1 0
-14.1 -13.8 0
-14.1 -13.5 0
-14.1 -13.2 0
-14.1 -12.9 0
-14.1 -12.6 0
-14.1 -12.3 0
-14.1 -12 0
-14.1 -11.7 0
-14.1 -11.4 0
-14.1 -11.1 0
-14.1 -10.8 0
-14.1 -10.5 0
-14.1 -10.2 0
-14.1 -9.9 0
-14.1 -9.6 0
-14.1 -9.3 0
-14.1 -9 0
-14.1 -8.7 0
-14.1 -8.4 0
-14.1 -8.1 0
-14.1 -7.8 0
-14.1 -7.5 0
-14.1 -7.2 0
-14.1 -6.9 0
-14.1 -6.6 0
-14.1 -6.3 0
-14.1 -6 0
-14.1 -5.7 0
-14.1 -5.4 0
-14.1 -5.1 0
-14.1 -4.8 0
-14.1 -4.5 0
-14.1 -4.2 0
-14.1 -3.9 0
-14.1 -3.6 0
-14.1 -3.3 0
-14.1 -3 0
-14.1 -2.7 0
-14.1 -2.4 0
-14.1 -2.1 0
-14.1 -1.8 0
-14.1 -1.5 0
-14.1 -1.2 0
-14.1 -0.9 0
-14.1 -0.6 0
-14.1 -0.3 0
-14.1 0 0
-14.1 0.3 0
-14.1 0.6 0
-14.1 0.9 0
-14.1 1.2 0
-14.1 1.5 0
-14.1 1.8 0
-14.1 2.1 0
-14.1 2.4 0
-14.1 2.7 0
-14.1 3 0
-14.1 3.3 0
-14.1 3.6 0
-14.1 3.9 0
-14.1 4.2 0
-14.1 4.5 0
-14.1 4.8 0
-14.1 5.1 0
-14.1 5.4 0
-14.1 5.7 0
-14.1 6 0
-14.1 6.3 0
-14.1 6.6 0
-14.1 6.9 0
-14.1 7.2 0
-14.1 7.5 0
-14.1 7.8 0
-14.1 8.1 0
-14.1 8.4 0
-14.1 8.7 0
-14.1 9 0
-14.1 9.3 0
-14.1 9.6 0
-14.1 9.9 0
-14.1 10.2 0
-14.1 10.5 0
-14.1 10.8 0
-14.1 11.1 0
-14.1 11.4 0
-14.1 11.7 0
-14.1 12 0
-14.1 12.3 0
-14.1 12.6 0
-14.1 12.9 0
-14.1 13.2 0
-14.1 13.5 0
-14.1 13.8 0
-14.1 14.1 0
-14.1 14.4 0
-14.1 14.7 0
-14.1 15 0
-13.8 -15 0
-13.8 -14.7 0
-13.8 -14.4 0
-13.8 -14.1 0
-13.8 -13.8 0
-13.8 -13.5 0
-13.8 -13.2 0
-13.8 -12.9 0
-13.8 -12.6 0
-13.8 -12.3 0
-13.8 -12 0
-13.8 -11.7 0
-13.8 -11.4 0
-13.8 -11.1 0
-13.8 -10.8 0
-13.8 -10.5 0
-13.8 -10.2 0
-13.8 -9.9 0
-13.8 -9.6 0
-13.8 -9.3 0
-13.8 -9 0
-13.8 -8.7 0
-13.8 -8.4 0
-13.8 -8.1 0
-13.8 -7.8 0
-13.8 -7.5 0
-13.8 -7.2 0
-13.8 -6.9 0
-13.8 -6.6 0
-13.8 -6.3 0
-13.8 -6 0
-13.8 -5.7 0
-13.8 -5.4 0
-13.8 -5.1 0
-13.8 -4.8 0
-13.8 -4.5 0
-13.8 -4.2 0
-13.8 -3.9 0
-13.8 -3.6 0
-13.8 -3.3 0
-13.8 -3 0
-13.8 -2.7 0
-13.8 -2.4 0
-13.8 -2.1 0
-13.8 -1.8 0
-13.8 -1.5 0
-13.8 -1.2 0
-13.8 -0.9 0
-13.8 -0.6 0
-13.8 -0.3 0
-13.8 0 0
-13.8 0.3 0
-13.8 0.6 0
-13.8 0.9 0
-13.8 1.2 0
-13.8 1.5 0
-13.8 1.8 0
-13.8 2.1 0
-13.8 2.4 0
-13.8 2.7 0
-13.8 3 0
-13.8 3.3 0
-13.8 3.6 0
-13.8 3.9 0
-13.8 4.2 0
-13.8 4.5 0
-13.8 4.8 0
-13.8 5.1 0
-13.8 5.4 0
-13.8 5.7 0
-13.8 6 0
-13.8 6.3 0
-13.8 6.6 0
-13.8 6.9 0
-13.8 7.2 0
-13.8 7.5 0
-13.8 7.8 0
-13.8 8.1 0
-13.8 8.4 0
-13.8 8.7 0
-13.8 9 0
-13.8 9.3 0
-13.8 9.6 0
-13.8 9.9 0
-13.8 10.2 0
-13.8 10.5 0
-13.8 10.8 0
-13.8 11.1 0
-13.8 11.4 0
-13.8 11.7 0
-13.8 12 0
-13.8 12.3 0
-13.8 12.6 0
-13.8 12.9 0
-13.8 13.2 0
-13.8 13.5 0
-13.8 13.8 0
-13.8 14.1 0
-13.8 14.4 0
-13.8 14.7 0
-13.8 15 0
-13.5 -15 0
-13.5 -14.7 0
-13.5 -14.4 0
-13.5 -14.1 0
-13.5 -13.8 0
-13.5 -13.5 0
-13.5 -13.2 0
-13.5 -12.9 0
-13.5 -12.6 0
-13.5 -12.3 0
-13.5 -12 0
-13.5 -11.7 0
-13.5 -11.4 0
-13.5 -11.1 0
-13.5 -10.8 0
-13.5 -10.5 0
-13.5 -10.2 0
-13.5 -9.9 0
-13.5 -9.6 0
-13.5 -9.3 0
-13.5 -9 0
-13.5 -8.7 0
-13.5 -8.4 0
-13.5 -8.1 0
-13.5 -7.8 0
-13.5 -7.5 0
-13.5 -7.2 0
-13.5 -6.9 0
-13.5 -6.6 0
-13.5 -6.3 0
-13.5 -6 0
-13.5 -5.7 0
-13.5 -5.4 0
-13.5 -5.1 0
-13.5 -4.8 0
-13.5 -4.5 0
-13.5 -4.2 0
-13.5 -3.9 0
-13.5 -3.6 0
-13.5 -3.3 0
-13.5 -3 0
-13.5 -2.7 0
-13.5 -2.4 0
-13.5 -2.1 0
-13.5 -1.8 0
-13.5 -1.5 0
-13.5 -1.2 0
-13.5 -0.9 0
-13.5 -0.6 0
-13.5 -0.3 0
-13.5 0 0
-13.5 0.3 0
-13.5 0.6 0
-13.5 0.9 0
-13.5 1.2 0
-13.5 1.5 0
-13.5 1.8 0
-13.5 2.1 0
-13.5 2.4 0
-13.5 2.7 0
-13.5 3 0
-13.5 3.3 0
-13.5 3.6 0
-13.5 3.9 0
-13.5 4.2 0
-13.5 4.5 0
-13.5 4.8 0
-13.5 5.1 0
-13.5 5.4 0
-13.5 5.7 0
-13.5 6 0
-13.5 6.3 0
-13.5 6.6 0
-13.5 6.9 0
-13.5 7.2 0
-13.5 7.5 0
-13.5 7.8 0
-13.5 8.1 0
-13.5 8.4 0
-13.5 8.7 0
-13.5 9 0
-13.5 9.3 0
-13.5 9.6 0
-13.5 9.9 0
-13.5 10.2 0
-13.5 10.5 0
-13.5 10.8 0
-13.5 11.1 0
-13.5 11.4 0
-13.5 11.7 0
-13.5 12 0
-13.5 12.3 0
-13.5 12.6 0
-13.5 12.9 0
-13.5 13.2 0
-13.5 13.5 0
-13.5 13.8 0
-13.5 14.1 0
-13.5 14.4 0
-13.5 14.7 0
-13.5 15 0
-13.2 -15 0
-13.2 -14.7 0
-13.2 -14.4 0
-13.2 -14.1 0
-13.2 -13.8 0
-13.2 -13.5 0
-13.2 -13.2 0
-13.2 -12.9 0
-13.2 -12.6 0
-13.2 -12.3 0
-13.2 -12 0
-13.2 -11.7 0
-13.2 -11.4 0
-13.2 -11.1 0
-13.2 -10.8 0
-13.2 -10.5 0
-13.2 -10.2 0
-13.2 -9.9 0
-13.2 -9.6 0
-13.2 -9.3 0
-13.2 -9 0
-13.2 -8.7 0
-13.2 -8.4 0
-13.2 -8.1 0
-13.2 -7.8 0
-13.2 -7.5 0
-13.2 -7.2 0
-13.2 -6.9 0
-13.2 -6.6 0
-13.2 -6.3 0
-13.2 -6 0
-13.2 -5.7 0
-13.2 -5.4 0
-13.2 -5.1 0
-13.2 -4.8 0
-13.2 -4.5 0
-13.2 -4.2 0
-13.2 -3.9 0
-13.2 -3.6 0
-13.2 -3.3 0
-13.2 -3 0
-13.2 -2.7 0
-13.2 -2.4 0
-13.2 -2.1 0
-13.2 -1.8 0
-13.2 -1.5 0
-13.2 -1.2 0
-13.2 -0.9 0
-13.2 -0.6 0
-13.2 -0.3 0
-13.2 0 0
-13.2 0.3 0
-13.2 0.6 0
-13.2 0.9 0
-13.2 1.2 0
-13.2 1.5 0
-13.2 1.8 0
-13.2 2.1 0
-13.2 2.4 0
-13.2 2.7 0
-13.2 3 0
-13.2 3.3 0
-13.2 3.6 0
-13.2 3.9 0
-13.2 4.2 0
-13.2 4.5 0
-13.2 4.8 0
-13.2 5.1 0
-13.2 5.4 0
-13.2 5.7 0
-13.2 6 0
-13.2 6.3 0
-13.2 6.6 0
-13.2 6.9 0
-13.2 7.2 0
-13.2 7.5 0
-13.2 7.8 0
-13.2 8.1 0
-13.2 8.4 0
-13.2 8.7 0
-13.2 9 0
-13.2 9.3 0
-13.2 9.6 0
-13.2 9.9 0
-13.2 10.2 0
-13.2 10.5 0
-13.2 10.8 0
-13.2 11.1 0
-13.2 11.4 0
-13.2 11.7 0
-13.2 12 0
-13.2 12.3 0
-13.2 12.6 0
-13.2 12.9 0
-13.2 13.2 0
-13.2 13.5 0
-13.2 13.8 0
-13.2 14.1 0
-13.2 14.4 0
-13.2 14.7 0
-13.2 15 0
-12.9 -15 0
-12.9 -14.7 0
-12.9 -14.4 0
-12.9 -14.1 0
-12.9 -13.8 0
-12.9 -13.5 0
-12.9 -13.2 0
-12.9 -12.9 0
-12.9 -12.6 0
-12.9 -12.3 0
-12.9 -12 0
-12.9 -11.7 0
-12.9 -11.4 0
-12.9 -11.1 0
-12.9 -10.8 0
-12.9 -10.5 0
-12.9 -10.2 0
-12.9 -9.9 0
-12.9 -9.6 0
-12.9 -9.3 0
-12.9 -9 0
-12.9 -8.7 0
-12.9 -8.4 0
-12.9 -8.1 0
-12.9 -7.8 0
-12.9 -7.5 0
-12.9 -7.2 0
-12.9 -6.9 0
-12.9 -6.6 0
-12.9 -6.3 0
-12.9 -6 0
-12.9 -5.7 0
-12.9 -5.4 0
-12.9 -5.1 0
-12.9 -4.8 0
-12.9 -4.5 0
-12.9 -4.2 0
-12.9 -3.9 0
-12.9 -3.6 0
-12.9 -3.3 0
-12.9 -3 0
-12.9 -2.7 0
-12.9 -2.4 0
-12.9 -2.1 0
-12.9 -1.8 0
-12.9 -1.5 0
-12.9 -1.2 0
-12.9 -0.9 0
-12.9 -0.6 0
-12.9 -0.3 0
-12.9 0 0
-12.9 0.3 0
-12.9 0.6 0
-12.9 0.9 0
-12.9 1.2 0
-12.9 1.5 0
-12.9 1.8 0
-12.9 2.1 0
-12.9 2.4 0
-12.9 2.7 0
-12.9 3 0
-12.9 3.3 0
-12.9 3.6 0
-12.9 3.9 0
-12.9 4.2 0
-12.9 4.5 0
-12.9 4.8 0
-12.9 5.1 0
-12.9 5.4 0
-12.9 5.7 0
-12.9 6 0
-12.9 6.3 0
-12.9 6.6 0
-12.9 6.9 0
-12.9 7.2 0
-12.9 7.5 0
-12.9 7.8 0
-12.9 8.1 0
-12.9 8.4 0
-12.9 8.7 0
-12.9 9 0
[...]
            <PointData>
                <DataArray type="Float64" Name="c1" format="ascii">
0.000999965 0.00100107 0.00100437 0.00100987 0.00101757 0.00102743 0.00103946 0.00105363 0.00106992 0.0010883 0.00110874 0.00113119 0.00115563 0.001182 0.00121024 0.00124031 0.00127213 0.00130564 0.00134075 0.00137739 0.00141546 0.00145485 0.00149547 0.00153719 0.0015799 0.00162345 0.00166772 0.00171254 0.00175778 0.00180326 0.00184881 0.00189426 0.00193943 0.00198413 0.00202817 0.00207135 0.00211347 0.00215435 0.00219379 0.00223159 0.00226756 0.00230153 0.0023333 0.00236271 0.00238961 0.00241385 0.00243529 0.00245382 0.00246934 0.00248175 0.00249099 0.00249702 0.0024998 0.00249933 0.00249562 0.00248871 0.00247863 0.00246548 0.00244932 0.00243027 0.00240846 0.00238402 0.0023571 0.00232786 0.00229648 0.00226315 0.00222804 0.00219136 0.00215331 0.00211409 0.0020739 0.00203295 0.00199144 0.00194956 0.00190751 0.00186548 0.00182366 0.00178222 0.00174134 0.00170118 0.00166189 0.00162363 0.00158653 0.00155073 0.00151634 0.0014835 0.0014523 0.00142283 0.00139521 0.00136949 0.00134577 0.00132411 0.00130457 0.00128721 0.00127207 0.00125919 0.0012486 0.00124034 0.00123443 0.00123087 0.00122969 
0.00100086 0.00100196 0.00100528 0.00101079 0.0010185 0.00102839 0.00104045 0.00105465 0.00107098 0.0010894 0.00110988 0.00113239 0.00115689 0.00118332 0.00121164 0.00124178 0.00127369 0.00130728 0.00134249 0.00137923 0.0014174 0.00145691 0.00149764 0.00153949 0.00158232 0.00162601 0.00167041 0.00171539 0.00176077 0.0018064 0.00185211 0.00189772 0.00194305 0.00198791 0.0020321 0.00207545 0.00211774 0.00215877 0.00219837 0.00223632 0.00227244 0.00230654 0.00233844 0.00236798 0.00239499 0.00241933 0.00244087 0.00245947 0.00247505 0.00248751 0.00249679 0.00250284 0.00250564 0.00250516 0.00250143 0.00249448 0.00248435 0.00247113 0.0024549 0.00243576 0.00241385 0.00238929 0.00236225 0.00233288 0.00230137 0.00226789 0.00223263 0.0021958 0.0021576 0.00211822 0.00207787 0.00203676 0.00199509 0.00195305 0.00191085 0.00186867 0.0018267 0.00178512 0.0017441 0.0017038 0.00166438 0.001626 0.00158878 0.00155287 0.00151838 0.00148544 0.00145414 0.00142459 0.00139689 0.0013711 0.00134732 0.0013256 0.001306 0.00128859 0.00127341 0.00126049 0.00124988 0.0012416 0.00123567 0.0012321 0.00123092 
0.00100354 0.00100465 0.00100799 0.00101354 0.0010213 0.00103126 0.0010434 0.0010577 0.00107414 0.00109269 0.00111332 0.00113599 0.00116067 0.00118729 0.00121582 0.0012462 0.00127835 0.00131221 0.0013477 0.00138474 0.00142323 0.00146307 0.00150416 0.00154637 0.0015896 0.00163369 0.00167851 0.00172391 0.00176974 0.00181583 0.00186201 0.00190809 0.0019539 0.00199925 0.00204394 0.00208776 0.00213054 0.00217205 0.00221211 0.00225052 0.00228707 0.00232159 0.00235389 0.0023838 0.00241116 0.00243581 0.00245761 0.00247646 0.00249223 0.00250485 0.00251424 0.00252036 0.00252317 0.00252268 0.00251888 0.00251182 0.00250154 0.00248813 0.00247166 0.00245225 0.00243003 0.00240514 0.00237773 0.00234798 0.00231605 0.00228214 0.00224643 0.00220914 0.00217047 0.00213061 0.00208979 0.00204819 0.00200604 0.00196354 0.00192087 0.00187823 0.00183582 0.00179381 0.00175237 0.00171166 0.00167186 0.0016331 0.00159554 0.00155929 0.00152449 0.00149125 0.00145967 0.00142987 0.00140192 0.00137592 0.00135194 0.00133004 0.00131028 0.00129273 0.00127743 0.00126441 0.00125371 0.00124537 0.00123939 0.0012358 0.0012346 
0.00100801 0.00100913 0.0010125 0.00101812 0.00102596 0.00103603 0.00104831 0.00106277 0.0010794 0.00109817 0.00111904 0.00114198 0.00116695 0.00119391 0.00122279 0.00125355 0.00128611 0.00132042 0.00135638 0.00139392 0.00143294 0.00147334 0.00151502 0.00155786 0.00160173 0.00164649 0.00169202 0.00173814 0.00178472 0.00183157 0.00187853 0.00192541 0.00197203 0.00201819 0.0020637 0.00210834 0.00215193 0.00219424 0.00223509 0.00227425 0.00231155 0.00234677 0.00237973 0.00241026 0.00243819 0.00246336 0.00248563 0.00250487 0.00252097 0.00253385 0.00254343 0.00254966 0.00255252 0.00255199 0.00254808 0.00254083 0.0025303 0.00251656 0.0024997 0.00247984 0.0024571 0.00243165 0.00240362 0.00237321 0.00234059 0.00230595 0.00226949 0.00223143 0.00219197 0.00215131 0.00210968 0.00206729 0.00202434 0.00198104 0.00193759 0.0018942 0.00185104 0.0018083 0.00176616 0.00172478 0.00168433 0.00164496 0.0016068 0.00156999 0.00153466 0.00150093 0.00146889 0.00143866 0.00141032 0.00138395 0.00135963 0.00133743 0.00131741 0.00129962 0.00128411 0.00127092 0.00126009 0.00125163 0.00124558 0.00124194 0.00124072 
0.00101424 0.00101538 0.0010188 0.0010245 0.00103247 0.0010427 0.00105517 0.00106986 0.00108676 0.00110582 0.00112704 0.00115036 0.00117575 0.00120316 0.00123254 0.00126383 0.00129698 0.0013319 0.00136853 0.00140677 0.00144654 0.00148773 0.00153024 0.00157395 0.00161872 0.00166444 0.00171095 0.00175809 0.00180572 0.00185365 0.00190171 0.00194972 0.00199748 0.00204479 0.00209145 0.00213725 0.00218198 0.00222543 0.00226738 0.00230763 0.00234596 0.00238218 0.00241609 0.0024475 0.00247624 0.00250214 0.00252506 0.00254486 0.00256143 0.00257468 0.00258453 0.00259093 0.00259384 0.00259325 0.00258919 0.00258168 0.00257078 0.00255658 0.00253916 0.00251866 0.0024952 0.00246894 0.00244005 0.0024087 0.00237509 0.00233943 0.00230191 0.00226275 0.00222217 0.00218039 0.00213763 0.0020941 0.00205002 0.0020056 0.00196106 0.00191658 0.00187237 0.00182862 0.00178549 0.00174316 0.0017018 0.00166155 0.00162257 0.00158498 0.00154891 0.00151448 0.00148179 0.00145095 0.00142205 0.00139517 0.00137039 0.00134777 0.00132737 0.00130925 0.00129346 0.00128003 0.00126899 0.00126038 0.00125422 0.00125052 0.00124928 
0.00102222 0.00102339 0.00102688 0.00103269 0.00104081 0.00105124 0.00106396 0.00107895 0.00109618 0.00111564 0.00113729 0.0011611 0.00118702 0.00121502 0.00124505 0.00127703 0.00131092 0.00134665 0.00138413 0.00142328 0.00146402 0.00150623 0.00154981 0.00159465 0.0016406 0.00168754 0.00173533 0.0017838 0.00183278 0.00188212 0.00193161 0.00198108 0.00203032 0.00207912 0.00212729 0.00217459 0.00222081 0.00226573 0.00230913 0.00235079 0.00239048 0.002428 0.00246313 0.00249569 0.00252549 0.00255235 0.00257613 0.00259666 0.00261385 0.00262758 0.00263778 0.00264439 0.00264737 0.00264672 0.00264245 0.0026346 0.00262322 0.00260841 0.00259027 0.00256892 0.00254451 0.0025172 0.00248717 0.00245461 0.00241972 0.00238271 0.00234381 0.00230322 0.00226119 0.00221794 0.0021737 0.00212869 0.00208315 0.00203728 0.00199131 0.00194544 0.00189986 0.00185478 0.00181038 0.00176682 0.00172428 0.0016829 0.00164284 0.00160424 0.00156721 0.00153188 0.00149836 0.00146674 0.00143711 0.00140957 0.00138419 0.00136102 0.00134014 0.0013216 0.00130544 0.0012917 0.00128041 0.0012716 0.0012653 0.00126151 0.00126025 
0.00103194 0.00103313 0.0010367 0.00104265 0.00105097 0.00106164 0.00107466 0.00109001 0.00110766 0.0011276 0.00114978 0.00117419 0.00120077 0.00122949 0.0012603 0.00129314 0.00132795 0.00136466 0.00140319 0.00144346 0.00148538 0.00152884 0.00157375 0.00161997 0.00166738 0.00171583 0.00176519 0.00181529 0.00186596 0.00191702 0.00196828 0.00201956 0.00207063 0.00212129 0.00217132 0.00222049 0.00226856 0.00231532 0.00236051 0.00240392 0.0024453 0.00248443 0.0025211 0.0025551 0.00258622 0.00261428 0.00263911 0.00266057 0.00267852 0.00269286 0.00270349 0.00271037 0.00271344 0.00271271 0.00270818 0.00269989 0.00268792 0.00267235 0.0026533 0.0026309 0.0026053 0.00257669 0.00254524 0.00251116 0.00247467 0.00243599 0.00239535 0.002353 0.00230916 0.00226408 0.00221801 0.00217117 0.00212381 0.00207614 0.00202841 0.0019808 0.00193355 0.00188683 0.00184085 0.00179577 0.00175177 0.00170901 0.00166763 0.00162777 0.00158957 0.00155313 0.00151858 0.001486 0.00145549 0.00142714 0.00140101 0.00137718 0.00135571 0.00133664 0.00132003 0.00130591 0.00129431 0.00128526 0.00127879 0.00127489 0.0012736 
0.00104336 0.00104458 0.00104825 0.00105436 0.0010629 0.00107387 0.00108725 0.00110302 0.00112117 0.00114167 0.00116449 0.0011896 0.00121697 0.00124655 0.00127828 0.00131213 0.00134803 0.0013859 0.00142568 0.00146729 0.00151062 0.00155558 0.00160205 0.00164992 0.00169906 0.00174933 0.00180056 0.00185261 0.00190529 0.00195843 0.00201182 0.00206526 0.00211853 0.00217142 0.00222369 0.0022751 0.00232541 0.00237437 0.00242173 0.00246725 0.00251067 0.00255176 0.00259028 0.00262601 0.00265873 0.00268824 0.00271437 0.00273694 0.00275582 0.00277089 0.00278205 0.00278925 0.00279243 0.00279159 0.00278675 0.00277794 0.00276525 0.00274876 0.0027286 0.00270492 0.00267789 0.00264768 0.00261452 0.00257861 0.00254018 0.00249948 0.00245676 0.00241226 0.00236625 0.00231898 0.00227069 0.00222165 0.0021721 0.00212228 0.00207242 0.00202275 0.00197348 0.0019248 0.00187693 0.00183004 0.0017843 0.00173988 0.00169693 0.00165558 0.00161597 0.00157822 0.00154243 0.00150872 0.00147716 0.00144784 0.00142084 0.00139622 0.00137404 0.00135435 0.0013372 0.00132263 0.00131066 0.00130133 0.00129465 0.00129064 0.0012893 
0.00105645 0.00105771 0.00106149 0.00106779 0.00107659 0.0010879 0.00110169 0.00111796 0.00113668 0.00115783 0.00118139 0.00120732 0.00123558 0.00126615 0.00129897 0.00133399 0.00137115 0.00141038 0.00145161 0.00149475 0.00153973 0.00158642 0.00163473 0.00168453 0.00173569 0.00178806 0.0018415 0.00189582 0.00195086 0.00200642 0.0020623 0.00211828 0.00217415 0.00222965 0.00228456 0.00233861 0.00239155 0.00244312 0.00249304 0.00254105 0.0025869 0.0026303 0.00267102 0.00270881 0.00274342 0.00277466 0.00280232 0.00282621 0.00284619 0.00286213 0.00287393 0.0028815 0.00288481 0.00288385 0.00287863 0.0028692 0.00285564 0.00283806 0.00281659 0.00279139 0.00276265 0.00273056 0.00269536 0.00265727 0.00261655 0.00257346 0.00252827 0.00248125 0.00243266 0.00238279 0.00233191 0.00228028 0.00222816 0.0021758 0.00212345 0.00207135 0.00201971 0.00196874 0.00191866 0.00186965 0.00182188 0.00177553 0.00173073 0.00168765 0.00164641 0.00160712 0.00156991 0.00153487 0.00150209 0.00147165 0.00144363 0.00141809 0.0013951 0.00137469 0.00135692 0.00134183 0.00132943 0.00131977 0.00131285 0.0013087 0.00130731 
0.00107118 0.00107248 0.00107639 0.0010829 0.001092 0.00110369 0.00111795 0.00113478 0.00115415 0.00117604 0.00120043 0.00122729 0.00125659 0.00128828 0.00132233 0.00135868 0.00139728 0.00143805 0.00148094 0.00152585 0.0015727 0.00162138 0.00167179 0.0017238 0.00177727 0.00183207 0.00188803 0.00194498 0.00200273 0.00206109 0.00211984 0.00217876 0.00223762 0.00229615 0.00235412 0.00241124 0.00246723 0.00252183 0.00257473 0.00262566 0.00267432 0.00272043 0.00276372 0.00280391 0.00284075 0.002874 0.00290345 0.0029289 0.00295017 0.00296713 0.00297966 0.00298768 0.00299114 0.00299003 0.00298437 0.00297421 0.00295963 0.00294077 0.00291775 0.00289077 0.00286003 0.00282573 0.00278814 0.00274751 0.00270412 0.00265824 0.00261017 0.0025602 0.00250863 0.00245574 0.00240184 0.0023472 0.0022921 0.00223681 0.00218158 0.00212667 0.0020723 0.0020187 0.00196608 0.00191462 0.00186452 0.00181595 0.00176905 0.00172398 0.00168086 0.00163982 0.00160098 0.00156442 0.00153025 0.00149853 0.00146935 0.00144277 0.00141884 0.00139762 0.00137914 0.00136345 0.00135057 0.00134053 0.00133334 0.00132903 0.00132759 
0.0010875 0.00108885 0.0010929 0.00109965 0.00110908 0.0011212 0.00113599 0.00115344 0.00117354 0.00119626 0.00122159 0.00124949 0.00127994 0.0013129 0.00134833 0.00138617 0.00142639 0.0014689 0.00151365 0.00156055 0.00160952 0.00166045 0.00171323 0.00176773 0.00182383 0.00188138 0.0019402 0.00200013 0.00206097 0.00212252 0.00218455 0.00224683 0.0023091 0.00237111 0.00243258 0.00249322 0.00255273 0.00261081 0.00266715 0.00272144 0.00277335 0.00282259 0.00286884 0.00291181 0.00295123 0.00298682 0.00301835 0.0030456 0.00306837 0.00308652 0.0030999 0.00310844 0.00311208 0.00311079 0.00310461 0.0030936 0.00307784 0.00305748 0.00303267 0.00300362 0.00297055 0.0029337 0.00289334 0.00284977 0.00280328 0.00275418 0.00270278 0.00264942 0.0025944 0.00253806 0.00248068 0.00242259 0.00236408 0.00230544 0.00224693 0.00218881 0.00213133 0.00207473 0.00201921 0.00196499 0.00191224 0.00186114 0.00181186 0.00176454 0.00171931 0.00167629 0.00163561 0.00159734 0.00156159 0.00152844 0.00149795 0.0014702 0.00144522 0.00142308 0.00140381 0.00138745 0.00137403 0.00136356 0.00135608 0.00135158 0.00135008 
0.00110538 0.00110678 0.00111099 0.00111799 0.00112779 0.00114039 0.00115576 0.0011739 0.0011948 0.00121845 0.00124481 0.00127387 0.0013056 0.00133996 0.00137692 0.00141643 0.00145845 0.0015029 0.00154973 0.00159885 0.00165018 0.00170361 0.00175905 0.00181635 0.0018754 0.00193603 0.00199808 0.00206136 0.00212568 0.00219083 0.00225656 0.00232264 0.00238879 0.00245474 0.00252019 0.00258483 0.00264835 0.00271041 0.00277067 0.00282879 0.00288444 0.00293725 0.00298691 0.00303309 0.00307546 0.00311375 0.00314768 0.003177 0.00320151 0.00322102 0.00323539 0.00324452 0.00324836 0.00324687 0.00324009 0.00322809 0.00321096 0.00318887 0.003162 0.00313055 0.0030948 0.003055 0.00301147 0.00296452 0.00291447 0.00286168 0.00280648 0.00274924 0.0026903 0.00262999 0.00256868 0.00250667 0.00244428 0.00238183 0.0023196 0.00225786 0.00219687 0.00213688 0.00207811 0.00202076 0.00196504 0.00191112 0.00185917 0.00180932 0.00176173 0.0017165 0.00167376 0.00163359 0.00159609 0.00156133 0.00152939 0.00150033 0.00147419 0.00145103 0.00143088 0.00141378 0.00139975 0.00138881 0.00138099 0.0013763 0.00137473 
0.00112475 0.00112621 0.00113059 0.00113788 0.00114808 0.0011612 0.00117721 0.00119611 0.00121789 0.00124254 0.00127004 0.00130037 0.00133351 0.00136942 0.00140807 0.00144942 0.00149341 0.00154001 0.00158913 0.0016407 0.00169465 0.00175087 0.00180924 0.00186966 0.00193198 0.00199605 0.00206169 0.00212872 0.00219694 0.00226611 0.002336 0.00240635 0.00247686 0.00254726 0.0026172 0.00268637 0.00275442 0.00282099 0.00288571 0.0029482 0.00300809 0.00306499 0.00311854 0.00316838 0.00321414 0.00325551 0.00329219 0.00332389 0.00335039 0.00337146 0.00338697 0.00339678 0.00340084 0.00339912 0.00339165 0.0033785 0.00335981 0.00333573 0.00330647 0.00327229 0.00323346 0.00319029 0.00314312 0.0030923 0.0030382 0.0029812 0.00292168 0.00286003 0.00279662 0.00273185 0.00266606 0.00259962 0.00253287 0.00246614 0.00239972 0.00233392 0.00226899 0.00220521 0.0021428 0.00208197 0.00202294 0.00196588 0.00191095 0.00185831 0.00180809 0.00176041 0.00171539 0.00167311 0.00163368 0.00159715 0.00156361 0.0015331 0.00150568 0.00148139 0.00146028 0.00144236 0.00142766 0.00141621 0.00140802 0.00140311 0.00140147 
0.00114556 0.00114709 0.00115165 0.00115925 0.00116989 0.00118357 0.00120027 0.00122 0.00124275 0.0012685 0.00129724 0.00132895 0.00136362 0.00140122 0.00144171 0.00148507 0.00153124 0.00158017 0.00163181 0.00168608 0.0017429 0.00180218 0.00186381 0.00192766 0.0019936 0.00206147 0.0021311 0.00220229 0.00227484 0.0023485 0.00242303 0.00249814 0.00257354 0.00264891 0.0027239 0.00279817 0.00287133 0.00294299 0.00301274 0.00308018 0.00314488 0.00320643 0.0032644 0.0033184 0.00336803 0.00341293 0.00345274 0.00348717 0.00351593 0.0035388 0.0035556 0.0035662 0.00357051 0.00356851 0.00356025 0.00354579 0.00352529 0.00349893 0.00346695 0.00342963 0.00338728 0.00334027 0.00328895 0.00323373 0.00317502 0.00311324 0.00304882 0.00298218 0.00291375 0.00284392 0.00277311 0.0027017 0.00263005 0.00255852 0.00248743 0.00241708 0.00234778 0.00227978 0.00221332 0.00214864 0.00208593 0.00202539 0.00196718 0.00191145 0.00185834 0.00180797 0.00176044 0.00171586 0.0016743 0.00163583 0.00160053 0.00156845 0.00153962 0.00151411 0.00149193 0.00147312 0.0014577 0.00144569 0.0014371 0.00143194 0.00143022 
0.00116775 0.00116934 0.00117411 0.00118204 0.00119316 0.00120744 0.0012249 0.00124552 0.0012693 0.00129624 0.00132632 0.00135954 0.00139587 0.00143529 0.00147779 0.00152333 0.00157186 0.00162335 0.00167773 0.00173494 0.00179491 0.00185754 0.00192272 0.00199034 0.00206026 0.00213232 0.00220634 0.00228213 0.00235946 0.0024381 0.00251777 0.00259819 0.00267903 0.00275996 0.0028406 0.00292057 0.00299947 0.00307685 0.00315229 0.00322531 0.00329545 0.00336225 0.00342525 0.00348397 0.003538 0.0035869 0.0036303 0.00366783 0.00369918 0.0037241 0.00374238 0.00375386 0.00375846 0.00375615 0.00374697 0.00373101 0.00370844 0.00367947 0.00364438 0.00360348 0.00355713 0.00350572 0.00344969 0.00338948 0.00332555 0.00325837 0.00318841 0.00311615 0.00304205 0.00296656 0.00289012 0.00281314 0.00273603 0.00265914 0.00258285 0.00250747 0.0024333 0.00236063 0.00228971 0.00222077 0.00215402 0.00208965 0.00202784 0.00196872 0.00191244 0.00185912 0.00180886 0.00176175 0.00171788 0.0016773 0.00164009 0.00160629 0.00157594 0.00154909 0.00152576 0.00150598 0.00148978 0.00147715 0.00146813 0.00146271 0.0014609 
0.00119125 0.00119291 0.00119789 0.00120619 0.00121781 0.00123275 0.00125101 0.00127259 0.00129749 0.0013257 0.00135723 0.00139206 0.00143018 0.00147158 0.00151624 0.00156413 0.00161522 0.00166947 0.00172683 0.00178723 0.00185062 0.00191689 0.00198596 0.00205769 0.00213196 0.0022086 0.00228745 0.00236829 0.0024509 0.00253503 0.00262039 0.00270668 0.00279356 0.00288067 0.00296761 0.00305396 0.00313928 0.00322308 0.00330489 0.0033842 0.00346049 0.00353323 0.0036019 0.003666 0.00372501 0.00377847 0.00382594 0.00386701 0.00390132 0.00392858 0.00394854 0.00396104 0.00396596 0.00396329 0.00395305 0.00393537 0.00391043 0.00387849 0.00383984 0.00379485 0.00374394 0.00368755 0.00362617 0.0035603 0.00349046 0.00341718 0.00334099 0.00326242 0.00318196 0.00310013 0.00301739 0.00293421 0.002851 0.00276818 0.00268612 0.00260516 0.00252563 0.00244782 0.00237198 0.00229837 0.00222719 0.00215863 0.00209288 0.00203007 0.00197034 0.00191381 0.00186058 0.00181073 0.00176434 0.00172148 0.00168219 0.00164654 0.00161455 0.00158625 0.00156169 0.00154086 0.00152381 0.00151053 0.00150103 0.00149533 0.00149343 
0.00121598 0.00121772 0.00122293 0.00123161 0.00124377 0.00125941 0.00127853 0.00130113 0.00132722 0.00135681 0.00138988 0.00142644 0.00146648 0.00150999 0.00155697 0.00160739 0.00166124 0.00171846 0.00177903 0.00184289 0.00190998 0.0019802 0.00205348 0.00212968 0.00220869 0.00229034 0.00237446 0.00246083 0.00254923 0.00263939 0.00273103 0.00282381 0.00291738 0.00301135 0.00310529 0.00319874 0.00329122 0.00338222 0.00347118 0.00355755 0.00364075 0.0037202 0.0037953 0.00386547 0.00393015 0.00398879 0.00404089 0.00408599 0.00412367 0.00415359 0.00417547 0.00418912 0.00419441 0.00419132 0.00417988 0.00416023 0.00413258 0.00409722 0.00405451 0.00400487 0.00394877 0.00388673 0.00381928 0.00374701 0.00367051 0.00359036 0.00350716 0.00342149 0.00333392 0.003245 0.00315524 0.00306516 0.0029752 0.0028858 0.00279737 0.00271027 0.00262483 0.00254137 0.00246015 0.00238142 0.0023054 0.00223229 0.00216225 0.00209542 0.00203195 0.00197195 0.0019155 0.00186269 0.00181359 0.00176827 0.00172675 0.0016891 0.00165534 0.0016255 0.0015996 0.00157766 0.00155969 0.00154571 0.00153571 0.00152971 0.00152771 
0.00124187 0.00124368 0.00124914 0.00125823 0.00127096 0.00128734 0.00130737 0.00133107 0.00135843 0.00138946 0.00142418 0.00146258 0.00150467 0.00155045 0.00159991 0.00165304 0.00170983 0.00177025 0.00183427 0.00190184 0.00197291 0.0020474 0.00212523 0.00220628 0.00229043 0.00237752 0.00246738 0.00255979 0.00265453 0.00275131 0.00284983 0.00294976 0.00305071 0.00315227 0.00325397 0.00335532 0.00345579 0.00355482 0.00365179 0.0037461 0.00383708 0.00392409 0.00400645 0.0040835 0.0041546 0.00421913 0.00427651 0.00432619 0.00436771 0.00440068 0.00442475 0.00443972 0.00444542 0.00444184 0.00442901 0.0044071 0.00437635 0.0043371 0.00428976 0.00423482 0.00417282 0.00410434 0.00403002 0.00395052 0.00386649 0.0037786 0.00368753 0.00359391 0.00349839 0.00340157 0.00330401 0.00320627 0.00310884 0.00301218 0.00291673 0.00282287 0.00273096 0.00264132 0.00255422 0.00246992 0.00238864 0.00231057 0.00223588 0.00216472 0.0020972 0.00203345 0.00197354 0.00191754 0.00186554 0.00181756 0.00177366 0.00173387 0.00169822 0.00166673 0.0016394 0.00161627 0.00159733 0.00158259 0.00157206 0.00156574 0.00156363 