<?xml version="1.0"?>
<VTKFile type="StructuredGrid" version="0.1">
    <StructuredGrid WholeExtent="0 100 0 100 0 0">
        <Piece Extent="0 100 0 100 0 0">
            <Points>
                <DataArray type="Float64" NumberOfComponents="3" format="ascii">
-15 -15 0
-15 -14.7 0
-15 -14.4 0
-15 -14.1 0
-15 -13.8 0
-15 -13.5 0
-15 -13.2 0
-15 -12.9 0
-15 -12.6 0
-15 -12.3 0
-15 -12 0
-15 -11.7 0
-15 -11.4 0
-15 -11.1 0
-15 -10.8 0
-15 -10.5 0
-15 -10.2 0
-15 -9.9 0
-15 -9.6 0
-15 -9.3 0
-15 -9 0
-15 -8.7 0
-15 -8.4 0
-15 -8.1 0
-15 -7.8 0
-15 -7.5 0
-15 -7.2 0
-15 -6.9 0
-15 -6.6 0
-15 -6.3 0
-15 -6 0
-15 -5.7 0
-15 -5.4 0
-15 -5.1 0
-15 -4.8 0
-15 -4.5 0
-15 -4.2 0
-15 -3.9 0
-15 -3.6 0
-15 -3.3 0
-15 -3 0
-15 -2.7 0
-15 -2.4 0
-15 -2.1 0
-15 -1.8 0
-15 -1.5 0
-15 -1.2 0
-15 -0.9 0
-15 -0.6 0
-15 -0.3 0
-15 0 0
-15 0.3 0
-15 0.6 0
-15 0.9 0
-15 1.2 0
-15 1.5 0
-15 1.8 0
-15 2.1 0
-15 2.4 0
-15 2.7 0
-15 3 0
-15 3.3 0
-15 3.6 0
-15 3.9 0
-15 4.2 0
-15 4.5 0
-15 4.8 0
-15 5.1 0
-15 5.4 0
-15 5.7 0
-15 6 0
-15 6.3 0
-15 6.6 0
-15 6.9 0
-15 7.2 0
-15 7.5 0
-15 7.8 0
-15 8.1 0
-15 8.4 0
-15 8.7 0
-15 9 0
-15 9.3 0
-15 9.6 0
-15 9.9 0
-15 10.2 0
-15 10.5 0
-15 10.8 0
-15 11.1 0
-15 11.4 0
-15 11.7 0
-15 12 0
-15 12.3 0
-15 12.6 0
-15 12.9 0
-15 13.2 0
-15 13.5 0
-15 13.8 0
-15 14.1 0
-15 14.4 0
-15 14.7 0
-15 15 0
-14.7 -15 0
-14.7 -14.7 0
-14.7 -14.4 0
-14.7 -14.1 0
-14.7 -13.8 0
-14.7 -13.5 0
-14.7 -13.2 0
-14.7 -12.9 0
-14.7 -12.6 0
-14.7 -12.3 0
-14.7 -12 0
-14.7 -11.7 0
-14.7 -11.4 0
-14.7 -11.1 0
-14.7 -10.8 0
-14.7 -10.5 0
-14.7 -10.2 0
-14.7 -9.9 0
-14.7 -9.6 0
-14.7 -9.3 0
-14.7 -9 0
-14.7 -8.7 0
-14.7 -8.4 0
-14.7 -8.1 0
-14.7 -7.8 0
-14.7 -7.5 0
-14.7 -7.2 0
-14.7 -6.9 0
-14.7 -6.6 0
-14.7 -6.3 0
-14.7 -6 0
-14.7 -5.7 0
-14.7 -5.4 0
-14.7 -5.1 0
-14.7 -4.8 0
-14.7 -4.5 0
-14.7 -4.2 0
-14.7 -3.9 0
-14.7 -3.6 0
-14.7 -3.3 0
-14.7 -3 0
-14.7 -2.7 0
-14.7 -2.4 0
-14.7 -2.1 0
-14.7 -1.8 0
-14.7 -1.5 0
-14.7 -1.2 0
-14.7 -0.9 0
-14.7 -0.6 0
-14.7 -0.3 0
-14.7 0 0
-14.7 0.3 0
-14.7 0.6 0
-14.7 0.9 0
-14.7 1.2 0
-14.7 1.5 0
-14.7 1.8 0
-14.7 2.1 0
-14.7 2.4 0
-14.7 2.7 0
-14.7 3 0
-14.7 3.3 0
-14.7 3.6 0
-14.7 3.9 0
-14.7 4.2 0
-14.7 4.5 0
-14.7 4.8 0
-14.7 5.1 0
-14.7 5.4 0
-14.7 5.7 0
-14.7 6 0
-14.7 6.3 0
-14.7 6.6 0
-14.7 6.9 0
-14.7 7.2 0
-14.7 7.5 0
-14.7 7.8 0
-14.7 8.1 0
-14.7 8.4 0
-14.7 8.7 0
-14.7 9 0
-14.7 9.3 0
-14.7 9.6 0
-14.7 9.9 0
-14.7 10.2 0
-14.7 10.5 0
-14.7 10.8 0
-14.7 11.1 0
-14.7 11.4 0
-14.7 11.7 0
-14.7 12 0
-14.7 12.3 0
-14.7 12.6 0
-14.7 12.9 0
-14.7 13.2 0
-14.7 13.5 0
-14.7 13.8 0
-14.7 14.1 0
-14.7 14.4 0
-14.7 14.7 0
-14.7 15 0
-14.4 -15 0
-14.4 -14.7 0
-14.4 -14.4 0
-14.4 -14.1 0
-14.4 -13.8 0
-14.4 -13.5 0
-14.4 -13.2 0
-14.4 -12.9 0
-14.4 -12.6 0
-14.4 -12.3 0
-14.4 -12 0
-14.4 -11.7 0
-14.4 -11.4 0
-14.4 -11.1 0
-14.4 -10.8 0
-14.4 -10.5 0
-14.4 -10.2 0
-14.4 -9.9 0
-14.4 -9.6 0
-14.4 -9.3 0
-14.4 -9 0
-14.4 -8.7 0
-14.4 -8.4 0
-14.4 -8.1 0
-14.4 -7.8 0
-14.4 -7.5 0
-14.4 -7.2 0
-14.4 -6.9 0
-14.4 -6.6 0
-14.4 -6.3 0
-14.4 -6 0
-14.4 -5.7 0
-14.4 -5.4 0
-14.4 -5.1 0
-14.4 -4.8 0
-14.4 -4.5 0
-14.4 -4.2 0
-14.4 -3.9 0
-14.4 -3.6 0
-14.4 -3.3 0
-14.4 -3 0
-14.4 -2.7 0
-14.4 -2.4 0
-14.4 -2.1 0
-14.4 -1.8 0
-14.4 -1.5 0
-14.4 -1.2 0
-14.4 -0.9 0
-14.4 -0.6 0
-14.4 -0.3 0
-14.4 0 0
-14.4 0.3 0
-14.4 0.6 0
-14.4 0.9 0
-14.4 1.2 0
-14.4 1.5 0
-14.4 1.8 0
-14.4 2.1 0
-14.4 2.4 0
-14.4 2.7 0
-14.4 3 0
-14.4 3.3 0
-14.4 3.6 0
-14.4 3.9 0
-14.4 4.2 0
-14.4 4.5 0
-14.4 4.8 0
-14.4 5.1 0
-14.4 5.4 0
-14.4 5.7 0
-14.4 6 0
-14.4 6.3 0
-14.4 6.6 0
-14.4 6.9 0
-14.4 7.2 0
-14.4 7.5 0
-14.4 7.8 0
-14.4 8.1 0
-14.4 8.4 0
-14.4 8.7 0
-14.4 9 0
-14.4 9.3 0
-14.4 9.6 0
-14.4 9.9 0
-14.4 10.2 0
-14.4 10.5 0
-14.4 10.8 0
-14.4 11.1 0
-14.4 11.4 0
-14.4 11.7 0
-14.4 12 0
-14.4 12.3 0
-14.4 12.6 0
-14.4 12.9 0
-14.4 13.2 0
-14.4 13.5 0
-14.4 13.8 0
-14.4 14.1 0
-14.4 14.4 0
-14.4 14.7 0
-14.4 15 0
-14.1 -15 0
-14.1 -14.7 0
-14.1 -14.4 0
-14.1 -14.1 0
-14.1 -13.8 0
-14.1 -13.5 0
-14.1 -13.2 0
-14.1 -12.9 0
-14.1 -12.6 0
-14.1 -12.3 0
-14.1 -12 0
-14.1 -11.7 0
-14.1 -11.4 0
-14.1 -11.1 0
-14.1 -10.8 0
-14.1 -10.5 0
-14.1 -10.2 0
-14.1 -9.9 0
-14.1 -9.6 0
-14.1 -9.3 0
-14.1 -9 0
-14.1 -8.7 0
-14.1 -8.4 0
-14.1 -8.1 0
-14.1 -7.8 0
-14.1 -7.5 0
-14.1 -7.2 0
-14.1 -6.9 0
-14.1 -6.6 0
-14.1 -6.3 0
-14.1 -6 0
-14.1 -5.7 0
-14.1 -5.4 0
-14.1 -5.1 0
-14.1 -4.8 0
-14.1 -4.5 0
-14.1 -4.2 0
-14.1 -3.9 0
-14.1 -3.6 0
-14.1 -3.3 0
-14.1 -3 0
-14.1 -2.7 0
-14.1 -2.4 0
-14.1 -2.1 0
-14.1 -1.8 0
-14.1 -1.5 0
-14.1 -1.2 0
-14.1 -0.9 0
-14.1 -0.6 0
-14.1 -0.3 0
-14.1 0 0
-14.1 0.3 0
-14.1 0.6 0
-14.1 0.9 0
-14.1 1.2 0
-14.1 1.5 0
-14.1 1.8 0
-14.1 2.1 0
-14.1 2.4 0
-14.1 2.7 0
-14.1 3 0
-14.1 3.3 0
-14.1 3.6 0
-14.1 3.9 0
-14.1 4.2 0
-14.1 4.5 0
-14.1 4.8 0
-14.1 5.1 0
-14.1 5.4 0
-14.1 5.7 0
-14.1 6 0
-14.1 6.3 0
-14.1 6.6 0
-14.1 6.9 0
-14.1 7.2 0
-14.1 7.5 0
-14.1 7.8 0
-14.1 8.1 0
-14.1 8.4 0
-14.1 8.7 0
-14.1 9 0
-14.1 9.3 0
-14.1 9.6 0
-14.1 9.9 0
-14.1 10.2 0
-14.1 10.5 0
-14.1 10.8 0
-14.1 11.1 0
-14.1 11.4 0
-14.1 11.7 0
-14.1 12 0
-14.1 12.3 0
-14.1 12.6 0
-14.1 12.9 0
-14.1 13.2 0
-14.1 13.5 0
-14.1 13.8 0
-14.1 14.1 0
-14.1 14.4 0
-14.1 14.7 0
-14.1 15 0
-13.8 -15 0
-13.8 -14.7 0
-13.8 -14.4 0
-13.8 -14.1 0
-13.8 -13.8 0
-13.8 -13.5 0
-13.8 -13.2 0
-13.8 -12.9 0
-13.8 -12.6 0
-13.8 -12.3 0
-13.8 -12 0
-13.8 -11.7 0
-13.8 -11.4 0
-13.8 -11.1 0
-13.8 -10.8 0
-13.8 -10.5 0
-13.8 -10.2 0
-13.8 -9.9 0
-13.8 -9.6 0
-13.8 -9.3 0
-13.8 -9 0
-13.8 -8.7 0
-13.8 -8.4 0
-13.8 -8.1 0
-13.8 -7.8 0
-13.8 -7.5 0
-13.8 -7.2 0
-13.8 -6.9 0
-13.8 -6.6 0
-13.8 -6.3 0
-13.8 -6 0
-13.8 -5.7 0
-13.8 -5.4 0
-13.8 -5.1 0
-13.8 -4.8 0
-13.8 -4.5 0
-13.8 -4.2 0
-13.8 -3.9 0
-13.8 -3.6 0
-13.8 -3.3 0
-13.8 -3 0
-13.8 -2.7 0
-13.8 -2.4 0
-13.8 -2.1 0
-13.8 -1.8 0
-13.8 -1.5 0
-13.8 -1.2 0
-13.8 -0.9 0
-13.8 -0.6 0
-13.8 -0.3 0
-13.8 0 0
-13.8 0.3 0
-13.8 0.6 0
-13.8 0.9 0
-13.8 1.2 0
-13.8 1.5 0
-13.8 1.8 0
-13.8 2.1 0
-13.8 2.4 0
-13.8 2.7 0
-13.8 3 0
-13.8 3.3 0
-13.8 3.6 0
-13.8 3.9 0
-13.8 4.2 0
-13.8 4.5 0
-13.8 4.8 0
-13.8 5.1 0
-13.8 5.4 0
-13.8 5.7 0
-13.8 6 0
-13.8 6.3 0
-13.8 6.6 0
-13.8 6.9 0
-13.8 7.2 0
-13.8 7.5 0
-13.8 7.8 0
-13.8 8.1 0
-13.8 8.4 0
-13.8 8.7 0
-13.8 9 0
-13.8 9.3 0
-13.8 9.6 0
-13.8 9.9 0
-13.8 10.2 0
-13.8 10.5 0
-13.8 10.8 0
-13.8 11.1 0
-13.8 11.4 0
-13.8 11.7 0
-13.8 12 0
-13.8 12.3 0
-13.8 12.6 0
-13.8 12.9 0
-13.8 13.2 0
-13.8 13.5 0
-13.8 13.8 0
-13.8 14.1 0
-13.8 14.4 0
-13.8 14.7 0
-13.8 15 0
-13.5 -15 0
-13.5 -14.7 0
-13.5 -14.4 0
-13.5 -14.1 0
-13.5 -13.8 0
-13.5 -13.5 0
-13.5 -13.2 0
-13.5 -12.9 0
-13.5 -12.6 0
-13.5 -12.3 0
-13.5 -12 0
-13.5 -11.7 0
-13.5 -11.4 0
-13.5 -11.1 0
-13.5 -10.8 0
-13.5 -10.5 0
-13.5 -10.2 0
-13.5 -9.9 0
-13.5 -9.6 0
-13.5 -9.3 0
-13.5 -9 0
-13.5 -8.7 0
-13.5 -8.4 0
-13.5 -8.1 0
-13.5 -7.8 0
-13.5 -7.5 0
-13.5 -7.2 0
-13.5 -6.9 0
-13.5 -6.6 0
-13.5 -6.3 0
-13.5 -6 0
-13.5 -5.7 0
-13.5 -5.4 0
-13.5 -5.1 0
-13.5 -4.8 0
-13.5 -4.5 0
-13.5 -4.2 0
-13.5 -3.9 0
-13.5 -3.6 0
-13.5 -3.3 0
-13.5 -3 0
-13.5 -2.7 0
-13.5 -2.4 0
-13.5 -2.1 0
-13.5 -1.8 0
-13.5 -1.5 0
-13.5 -1.2 0
-13.5 -0.9 0
-13.5 -0.6 0
-13.5 -0.3 0
-13.5 0 0
-13.5 0.3 0
-13.5 0.6 0
-13.5 0.9 0
-13.5 1.2 0
-13.5 1.5 0
-13.5 1.8 0
-13.5 2.1 0
-13.5 2.4 0
-13.5 2.7 0
-13.5 3 0
-13.5 3.3 0
-13.5 3.6 0
-13.5 3.9 0
-13.5 4.2 0
-13.5 4.5 0
-13.5 4.8 0
-13.5 5.1 0
-13.5 5.4 0
-13.5 5.7 0
-13.5 6 0
-13.5 6.3 0
-13.5 6.6 0
-13.5 6.9 0
-13.5 7.2 0
-13.5 7.5 0
-13.5 7.8 0
-13.5 8.1 0
-13.5 8.4 0
-13.5 8.7 0
-13.5 9 0
-13.5 9.3 0
-13.5 9.6 0
-13.5 9.9 0
-13.5 10.2 0
-13.5 10.5 0
-13.5 10.8 0
-13.5 11.1 0
-13.5 11.4 0
-13.5 11.7 0
-13.5 12 0
-13.5 12.3 0
-13.5 12.6 0
-13.5 12.9 0
-13.5 13.2 0
-13.5 13.5 0
-13.5 13.8 0
-13.5 14.1 0
-13.5 14.4 0
-13.5 14.7 0
-13.5 15 0
-13.2 -15 0
-13.2 -14.7 0
-13.2 -14.4 0
-13.2 -14.1 0
-13.2 -13.8 0
-13.2 -13.5 0
-13.2 -13.2 0
-13.2 -12.9 0
-13.2 -12.6 0
-13.2 -12.3 0
-13.2 -12 0
-13.2 -11.7 0
-13.2 -11.4 0
-13.2 -11.1 0
-13.2 -10.8 0
-13.2 -10.5 0
-13.2 -10.2 0
-13.2 -9.9 0
-13.2 -9.6 0
-13.2 -9.3 0
-13.2 -9 0
-13.2 -8.7 0
-13.2 -8.4 0
-13.2 -8.1 0
-13.2 -7.8 0
-13.2 -7.5 0
-13.2 -7.2 0
-13.2 -6.9 0
-13.2 -6.6 0
-13.2 -6.3 0
-13.2 -6 0
-13.2 -5.7 0
-13.2 -5.4 0
-13.2 -5.1 0
-13.2 -4.8 0
-13.2 -4.5 0
-13.2 -4.2 0
-13.2 -3.9 0
-13.2 -3.6 0
-13.2 -3.3 0
-13.2 -3 0
-13.2 -2.7 0
-13.2 -2.4 0
-13.2 -2.1 0
-13.2 -1.8 0
-13.2 -1.5 0
-13.2 -1.2 0
-13.2 -0.9 0
-13.2 -0.6 0
-13.2 -0.3 0
-13.2 0 0
-13.2 0.3 0
-13.2 0.6 0
-13.2 0.9 0
-13.2 1.2 0
-13.2 1.5 0
-13.2 1.8 0
-13.2 2.1 0
-13.2 2.4 0
-13.2 2.7 0
-13.2 3 0
-13.2 3.3 0
-13.2 3.6 0
-13.2 3.9 0
-13.2 4.2 0
-13.2 4.5 0
-13.2 4.8 0
-13.2 5.1 0
-13.2 5.4 0
-13.2 5.7 0
-13.2 6 0
-13.2 6.3 0
-13.2 6.6 0
-13.2 6.9 0
-13.2 7.2 0
-13.2 7.5 0
-13.2 7.8 0
-13.2 8.1 0
-13.2 8.4 0
-13.2 8.7 0
-13.2 9 0
-13.2 9.3 0
-13.2 9.6 0
-13.2 9.9 0
-13.2 10.2 0
-13.2 10.5 0
-13.2 10.8 0
-13.2 11.1 0
-13.2 11.4 0
-13.2 11.7 0
-13.2 12 0
-13.2 12.3 0
-13.2 12.6 0
-13.2 12.9 0
-13.2 13.2 0
-13.2 13.5 0
-13.2 13.8 0
-13.2 14.1 0
-13.2 14.4 0
-13.2 14.7 0
-13.2 15 0
-12.9 -15 0
-12.9 -14.7 0
-12.9 -14.4 0
-12.9 -14.1 0
-12.9 -13.8 0
-12.9 -13.5 0
-12.9 -13.2 0
-12.9 -12.9 0
-12.9 -12.6 0
-12.9 -12.3 0
-12.9 -12 0
-12.9 -11.7 0
-12.9 -11.4 0
-12.9 -11.1 0
-12.9 -10.8 0
-12.9 -10.5 0
-12.9 -10.2 0
-12.9 -9.9 0
-12.9 -9.6 0
-12.9 -9.3 0
-12.9 -9 0
-12.9 -8.7 0
-12.9 -8.4 0
-12.9 -8.1 0
-12.9 -7.8 0
-12.9 -7.5 0
-12.9 -7.2 0
-12.9 -6.9 0
-12.9 -6.6 0
-12.9 -6.3 0
-12.9 -6 0
-12.9 -5.7 0
-12.9 -5.4 0
-12.9 -5.1 0
-12.9 -4.8 0
-12.9 -4.5 0
-12.9 -4.2 0
-12.9 -3.9 0
-12.9 -3.6 0
-12.9 -3.3 0
-12.9 -3 0
-12.9 -2.7 0
-12.9 -2.4 0
-12.9 -2.1 0
-12.9 -1.8 0
-12.9 -1.5 0
-12.9 -1.2 0
-12.9 -0.9 0
-12.9 -0.6 0
-12.9 -0.3 0
-12.9 0 0
-12.9 0.3 0
-12.9 0.6 0
-12.9 0.9 0
-12.9 1.2 0
-12.9 1.5 0
-12.9 1.8 0
-12.9 2.1 0
-12.9 2.4 0
-12.9 2.7 0
-12.9 3 0
-12.9 3.3 0
-12.9 3.6 0
-12.9 3.9 0
-12.9 4.2 0
-12.9 4.5 0
-12.9 4.8 0
-12.9 5.1 0
-12.9 5.4 0
-12.9 5.7 0
-12.9 6 0
-12.9 6.3 0
-12.9 6.6 0
-12.9 6.9 0
-12.9 7.2 0
-12.9 7.5 0
-12.9 7.8 0
-12.9 8.1 0
-12.9 8.4 0
-12.9 8.7 0
-12.9 9 0
[...]
            <PointData>
                <DataArray type="Float64" Name="c1" format="ascii">
0.00393967 0.00394398 0.00395693 0.00397851 0.00400874 0.00404765 0.00409527 0.00415163 0.00421677 0.00429073 0.00437356 0.0044653 0.00456598 0.00467565 0.00479432 0.00492202 0.00505871 0.00520438 0.00535896 0.00552234 0.0056944 0.00587496 0.0060638 0.0062607 0.00646539 0.0066776 0.00689703 0.0071234 0.00735637 0.00759554 0.00784035 0.00808997 0.00834321 0.00859843 0.00885362 0.00910664 0.00935553 0.00959869 0.00983484 0.0100633 0.0102843 0.0104992 0.0107095 0.010916 0.0111179 0.0113133 0.0114986 0.0116699 0.0118232 0.0119551 0.0120632 0.0121454 0.0121992 0.0122215 0.0122099 0.0121655 0.0120919 0.0119939 0.0118763 0.0117429 0.0115964 0.0114381 0.0112687 0.011088 0.0108956 0.0106914 0.0104756 0.0102492 0.0100138 0.00977159 0.0095246 0.00927489 0.00902434 0.00877459 0.00852711 0.00828318 0.00804391 0.00781028 0.00758313 0.00736319 0.00715109 0.00694738 0.00675251 0.00656687 0.0063908 0.00622457 0.00606841 0.0059225 0.00578701 0.00566206 0.00554775 0.00544416 0.00535136 0.00526938 0.00519828 0.00513809 0.00508881 0.00505047 0.00502308 0.00500664 0.00500116 
0.00394083 0.00394514 0.0039581 0.0039797 0.00400997 0.00404892 0.0040966 0.00415302 0.00421824 0.00429229 0.00437522 0.00446707 0.00456789 0.00467771 0.00479656 0.00492445 0.00506137 0.0052073 0.00536216 0.00552586 0.00569827 0.00587923 0.00606852 0.00626592 0.00647117 0.006684 0.00690415 0.00713133 0.00736524 0.00760551 0.00785161 0.00810275 0.00835769 0.0086147 0.0088716 0.00912608 0.00937613 0.00962013 0.00985678 0.0100852 0.0103057 0.0105199 0.01073 0.0109369 0.01114 0.0113371 0.0115245 0.011698 0.0118531 0.0119865 0.0120959 0.0121798 0.0122356 0.0122594 0.0122475 0.0122012 0.0121248 0.012024 0.0119039 0.0117686 0.0116206 0.0114614 0.0112913 0.0111101 0.0109173 0.0107123 0.0104954 0.0102677 0.010031 0.00978731 0.00953899 0.00928807 0.00903641 0.00878568 0.0085373 0.00829256 0.00805254 0.00781822 0.00759043 0.00736991 0.00715727 0.00695306 0.00675774 0.00657169 0.00639524 0.00622867 0.0060722 0.00592601 0.00579027 0.0056651 0.00555059 0.00544682 0.00535386 0.00527176 0.00520055 0.00514025 0.0050909 0.0050525 0.00502507 0.0050086 0.00500312 
0.00394428 0.00394861 0.00396161 0.00398328 0.00401365 0.00405273 0.00410056 0.00415718 0.00422262 0.00429694 0.00438018 0.00447238 0.00457361 0.00468389 0.00480326 0.00493174 0.00506934 0.00521601 0.00537172 0.00553638 0.00570986 0.00589201 0.00608264 0.00628153 0.00648845 0.00670316 0.00692543 0.00715504 0.00739177 0.00763535 0.00788538 0.00814111 0.0084013 0.00866391 0.00892616 0.00918507 0.00943854 0.00968517 0.00992348 0.0101517 0.0103703 0.010582 0.0107909 0.0109992 0.0112059 0.0114085 0.0116026 0.0117829 0.0119434 0.0120808 0.0121937 0.0122824 0.012345 0.0123748 0.0123621 0.0123094 0.012224 0.012114 0.0119862 0.0118451 0.011693 0.011531 0.0113591 0.0111766 0.0109824 0.0107753 0.0105553 0.0103235 0.0100823 0.00983437 0.00958203 0.00932746 0.00907254 0.00881886 0.00856782 0.00832063 0.00807838 0.007842 0.00761231 0.00739003 0.00717578 0.00697009 0.00677341 0.00658612 0.00640854 0.00624095 0.00608355 0.00593653 0.00580003 0.00567419 0.00555908 0.00545479 0.00536137 0.00527887 0.00520731 0.00514674 0.00509716 0.00505858 0.00503103 0.00501449 0.00500898 
0.00395002 0.00395437 0.00396744 0.00398922 0.00401975 0.00405904 0.00410714 0.00416407 0.0042299 0.00430465 0.0043884 0.0044812 0.00458309 0.00469414 0.00481437 0.00494383 0.00508253 0.00523046 0.00538757 0.00555381 0.00572906 0.00591319 0.00610603 0.00630739 0.00651708 0.00673489 0.00696068 0.00719431 0.00743572 0.00768484 0.00794148 0.00820514 0.00847459 0.00874733 0.0090193 0.00928574 0.00954473 0.00979594 0.0100379 0.0102657 0.0104795 0.0106849 0.0108912 0.0111016 0.0113148 0.0115272 0.0117336 0.0119265 0.0120961 0.0122387 0.012355 0.012451 0.0125274 0.012575 0.0125623 0.0124938 0.0123896 0.0122627 0.0121218 0.0119711 0.0118124 0.0116461 0.0114718 0.0112878 0.0110921 0.0108815 0.0106559 0.0104168 0.0101678 0.00991244 0.00965333 0.00939272 0.0091324 0.00887388 0.00861845 0.00836725 0.00812129 0.0078815 0.00764865 0.00742346 0.00720653 0.00699838 0.00679944 0.00661009 0.00643063 0.00626133 0.00610239 0.00595398 0.00581624 0.00568927 0.00557318 0.00546801 0.00537382 0.00529066 0.00521855 0.0051575 0.00510755 0.00506868 0.00504092 0.00502426 0.0050187 
0.003958 0.00396239 0.00397555 0.00399749 0.00402825 0.00406783 0.00411629 0.00417367 0.00424002 0.00431539 0.00439984 0.00449345 0.00459627 0.00470837 0.00482981 0.00496063 0.00510086 0.00525051 0.00540957 0.00557799 0.0057557 0.00594257 0.00613848 0.00634326 0.00655677 0.00677888 0.00700953 0.00724874 0.00749664 0.00775348 0.00801951 0.00829471 0.00857823 0.00886721 0.00915519 0.0094321 0.00969771 0.00995535 0.0102055 0.0104333 0.0106369 0.0108269 0.0110277 0.0112419 0.0114651 0.0116925 0.0119183 0.0121336 0.0123158 0.0124624 0.0125754 0.0126776 0.0127781 0.0128811 0.0128811 0.012764 0.0126209 0.0124668 0.0123072 0.012144 0.011977 0.0118056 0.0116287 0.0114441 0.0112484 0.0110332 0.0107993 0.0105479 0.010287 0.0100208 0.00975216 0.0094832 0.0092155 0.00895035 0.00868889 0.00843215 0.00818107 0.00793653 0.0076993 0.00747005 0.00724937 0.00703778 0.00683569 0.00664346 0.00646139 0.00628971 0.00612862 0.00597827 0.00583879 0.00571027 0.00559279 0.0054864 0.00539116 0.00530707 0.00523418 0.00517248 0.00512199 0.00508273 0.00505467 0.00503784 0.00503223 
0.00396819 0.00397261 0.00398589 0.00400804 0.00403908 0.00407904 0.00412797 0.00418591 0.00425292 0.00432907 0.00441442 0.00450906 0.00461306 0.0047265 0.00484946 0.00498199 0.00512417 0.00527601 0.00543754 0.00560873 0.00578953 0.00597988 0.00617967 0.00638879 0.00660715 0.00683469 0.00707148 0.00731773 0.00757384 0.0078405 0.0081186 0.00840908 0.00871236 0.00902652 0.00934246 0.00963101 0.00990025 0.0101633 0.0104345 0.0106655 0.0108499 0.0110012 0.0111946 0.0114168 0.0116543 0.011902 0.0121558 0.012416 0.0126127 0.0127603 0.0128447 0.012943 0.013063 0.0131531 0.0132045 0.0131281 0.0129099 0.0127178 0.0125368 0.0123599 0.0121841 0.0120074 0.0118286 0.0116453 0.0114563 0.011234 0.0109892 0.0107164 0.0104387 0.0101581 0.00987733 0.00959798 0.00932114 0.00904776 0.00877876 0.00851503 0.00825745 0.00800687 0.00776402 0.00752957 0.00730411 0.00708811 0.00688199 0.00668608 0.00650065 0.00632593 0.00616209 0.00600926 0.00586755 0.00573705 0.0056178 0.00550986 0.00541325 0.00532799 0.0052541 0.00519157 0.00514041 0.00510063 0.00507221 0.00505516 0.00504948 
0.00398052 0.00398499 0.00399841 0.00402081 0.00405219 0.0040926 0.00414209 0.00420071 0.00426852 0.00434561 0.00443204 0.00452792 0.00463334 0.00474839 0.00487317 0.00500777 0.00515227 0.00530674 0.00547122 0.00564573 0.00583026 0.00602477 0.00622921 0.00644352 0.00666767 0.00690171 0.00714583 0.00740046 0.00766635 0.00794467 0.00823714 0.00854607 0.00887454 0.00922624 0.00960178 0.00989415 0.0101531 0.0104043 0.0106493 0.010857 0.011003 0.0111807 0.0113814 0.0116243 0.0118803 0.0121512 0.0124317 0.0126654 0.0128607 0.0130157 0.0131398 0.0132233 0.0133004 0.0133414 0.0133887 0.0134141 0.0132186 0.0129991 0.0128024 0.0126145 0.0124306 0.012249 0.0120691 0.0118867 0.0116701 0.0114342 0.0111863 0.0109175 0.01062 0.0103221 0.0100272 0.00973593 0.0094486 0.00916562 0.00888767 0.00861557 0.00835015 0.00809223 0.00784256 0.00760179 0.00737049 0.00714913 0.0069381 0.0067377 0.0065482 0.00636978 0.0062026 0.00604677 0.00590236 0.00576945 0.00564807 0.00553824 0.00543998 0.0053533 0.00527819 0.00521466 0.00516269 0.00512227 0.00509341 0.0050761 0.00507033 
0.00399491 0.00399944 0.00401303 0.00403571 0.0040675 0.00410844 0.00415858 0.00421798 0.00428673 0.0043649 0.00445259 0.0045499 0.00465696 0.00477387 0.00490076 0.00503774 0.00518493 0.00534243 0.00551032 0.00568866 0.00587748 0.0060768 0.00628659 0.00650687 0.00673768 0.00697916 0.00723167 0.00749589 0.00777292 0.00806446 0.00837285 0.00870137 0.00905566 0.00944857 0.00983102 0.0100869 0.0103259 0.0105437 0.0107293 0.01093 0.0111305 0.0113552 0.011581 0.0118729 0.0121433 0.0124407 0.0126785 0.0128598 0.0130373 0.0131965 0.0133502 0.013446 0.0134783 0.0135394 0.0135895 0.0136119 0.0134992 0.0132962 0.0130989 0.0129051 0.012714 0.0125272 0.0123496 0.0121311 0.0118748 0.0116253 0.0113711 0.0111161 0.0108283 0.0105094 0.0101996 0.00989592 0.00959723 0.00930351 0.00901534 0.0087335 0.00845889 0.00819235 0.00793463 0.0076864 0.00744822 0.00722054 0.00700373 0.00679807 0.00660378 0.00642103 0.00624993 0.00609057 0.00594301 0.00580727 0.00568339 0.00557136 0.00547117 0.00538282 0.0053063 0.00524159 0.00518867 0.00514752 0.00511814 0.00510052 0.00509465 
0.00401129 0.00401588 0.00402967 0.00405267 0.00408491 0.00412645 0.00417732 0.00423762 0.00430742 0.00438682 0.00447592 0.00457486 0.00468376 0.00480276 0.00493202 0.00507168 0.00522189 0.00538279 0.0055545 0.00573713 0.00593076 0.00613544 0.00635123 0.00657816 0.00681637 0.00706611 0.0073279 0.00760271 0.00789209 0.00819821 0.00852364 0.0088707 0.00924221 0.00965424 0.00991263 0.0101348 0.0103788 0.0106139 0.0108326 0.0110568 0.0112895 0.0115377 0.0118828 0.012204 0.012437 0.0127079 0.0128969 0.0130783 0.0132509 0.0134072 0.0135418 0.0136321 0.013652 0.0137726 0.0138403 0.0138829 0.0138106 0.0136249 0.0134312 0.0132332 0.0130333 0.0128355 0.0126347 0.0123781 0.0121186 0.0118559 0.0115866 0.0113118 0.0110351 0.0107144 0.0103926 0.0100773 0.00976687 0.00946138 0.00916164 0.00886865 0.00858343 0.00830691 0.0080399 0.00778307 0.00753696 0.00730202 0.00707857 0.00686687 0.0066671 0.00647938 0.00630381 0.00614042 0.00598925 0.0058503 0.00572356 0.00560901 0.00550663 0.00541638 0.00533825 0.00527219 0.00521819 0.00517621 0.00514624 0.00512827 0.00512228 
0.00402955 0.00403422 0.00404822 0.00407158 0.00410433 0.00414652 0.00419822 0.00425951 0.00433047 0.00441123 0.0045019 0.00460262 0.00471356 0.00483487 0.00496673 0.00510933 0.00526285 0.00542747 0.00560337 0.0057907 0.00598958 0.00620014 0.00642245 0.00665662 0.00690283 0.00716144 0.00743316 0.00771928 0.00802196 0.00834415 0.00868884 0.0090558 0.00943104 0.00978801 0.00997841 0.0102087 0.0104654 0.010721 0.0109717 0.0112292 0.0115044 0.0118067 0.0121772 0.0124921 0.012755 0.0129626 0.0131503 0.013332 0.013504 0.0136585 0.0137932 0.0139196 0.0139899 0.0140545 0.0141469 0.0142102 0.0141693 0.0139979 0.0138073 0.0136039 0.0133918 0.0131734 0.0129392 0.0126778 0.0124079 0.0121297 0.0118424 0.0115473 0.0112491 0.0109334 0.0106064 0.010281 0.00995825 0.00963966 0.00932674 0.00902095 0.00872357 0.00843563 0.00815802 0.0078914 0.00763632 0.00739316 0.00716223 0.00694373 0.00673779 0.00654451 0.00636391 0.00619601 0.0060408 0.00589825 0.00576832 0.00565096 0.00554613 0.00545377 0.00537383 0.00530628 0.00525107 0.00520816 0.00517753 0.00515917 0.00515304 
0.0040496 0.00405434 0.00406858 0.00409233 0.00412563 0.00416855 0.00422114 0.0042835 0.00435574 0.00443797 0.00453034 0.00463301 0.00474615 0.00486995 0.00500463 0.0051504 0.00530749 0.00547612 0.00565651 0.00584888 0.00605341 0.00627024 0.00649953 0.00674141 0.00699608 0.00726395 0.00754587 0.00784349 0.00815972 0.00849912 0.00886778 0.00927237 0.00961447 0.00984942 0.0100613 0.0102978 0.0105723 0.010865 0.0111605 0.0114482 0.0117649 0.0121012 0.0124291 0.0127453 0.0130564 0.0132525 0.013441 0.0136257 0.0137982 0.0139469 0.0140709 0.0142255 0.014408 0.0144538 0.0145381 0.0146192 0.0145906 0.0144268 0.0142363 0.0140254 0.0137999 0.0135625 0.013306 0.0130303 0.0127453 0.0124495 0.0121417 0.0118241 0.0115033 0.0111815 0.0108474 0.0105102 0.0101732 0.0098393 0.00951103 0.00919044 0.00887909 0.00857818 0.00828858 0.00801097 0.00774584 0.00749353 0.00725427 0.00702823 0.00681547 0.00661603 0.00642989 0.00625702 0.00609736 0.00595085 0.00581741 0.00569696 0.00558942 0.00549474 0.00541282 0.00534362 0.00528708 0.00524316 0.00521181 0.00519301 0.00518674 
0.00407131 0.00407614 0.00409062 0.0041148 0.0041487 0.00419239 0.00424595 0.00430947 0.00438307 0.00446689 0.00456108 0.00466583 0.00478132 0.00490778 0.00504546 0.00519459 0.00535546 0.00552833 0.00571349 0.00591118 0.00612166 0.00634512 0.00658175 0.0068317 0.00709515 0.00737247 0.00766446 0.00797288 0.00830122 0.00865568 0.00904604 0.00943348 0.00972933 0.00995554 0.0101903 0.0104456 0.0107422 0.0110584 0.0113863 0.011706 0.012053 0.0123993 0.0127371 0.0130621 0.0133638 0.0136063 0.0137909 0.0139723 0.0141415 0.0142774 0.0143664 0.0145746 0.0147729 0.0149007 0.0150072 0.0151027 0.0150793 0.0149211 0.0147273 0.0145059 0.0142672 0.0140142 0.0137327 0.0134351 0.0131322 0.0128167 0.012486 0.0121423 0.0117907 0.011465 0.0111216 0.0107692 0.0104142 0.0100615 0.00971497 0.00937711 0.00904975 0.00873413 0.0084311 0.00814126 0.007865 0.0076026 0.00735421 0.00711991 0.0068997 0.00669354 0.00650136 0.00632308 0.00615858 0.00600776 0.0058705 0.0057467 0.00563624 0.00553903 0.00545497 0.00538399 0.00532601 0.00528097 0.00524884 0.00522957 0.00522315 
0.00409455 0.00409947 0.00411422 0.00413885 0.00417339 0.00421791 0.00427249 0.00433725 0.0044123 0.0044978 0.00459392 0.00470086 0.00481884 0.00494811 0.00508893 0.00524159 0.00540642 0.00558372 0.00577384 0.00597708 0.00619376 0.00642413 0.00666842 0.00692676 0.00719928 0.00748615 0.00778783 0.0081056 0.00844259 0.00880561 0.00920691 0.00950907 0.00979031 0.0100597 0.0103336 0.0106324 0.0109496 0.0112815 0.0116262 0.0119767 0.0123514 0.012722 0.0130855 0.0134324 0.0137515 0.0140186 0.0142405 0.0144235 0.014554 0.0146682 0.0147662 0.0150051 0.0152459 0.0154143 0.0155435 0.0156405 0.0156392 0.0154898 0.0152893 0.0150519 0.0148011 0.0145407 0.0142316 0.0138952 0.0135644 0.0132285 0.0128742 0.0124974 0.01214 0.0118 0.0114373 0.0110627 0.0106838 0.0103075 0.00993884 0.00958075 0.00923507 0.00890291 0.00858495 0.00828163 0.0079932 0.00771981 0.0074615 0.00721824 0.00698997 0.00677657 0.00657788 0.00639378 0.00622408 0.00606863 0.00592728 0.00579987 0.00568628 0.00558636 0.0055 0.0054271 0.00536758 0.00532136 0.00528839 0.00526863 0.00526204 
0.0041192 0.00412421 0.00413925 0.00416435 0.00419956 0.00424495 0.00430062 0.00436667 0.00444325 0.00453052 0.00462867 0.00473791 0.00485848 0.00499066 0.00513475 0.00529108 0.00546 0.00564188 0.00583711 0.00604608 0.00626915 0.00650666 0.00675887 0.00702596 0.00730796 0.00760477 0.0079161 0.00824184 0.00858296 0.00894493 0.00931897 0.00960462 0.00989299 0.0101815 0.0104795 0.0108074 0.0111549 0.0115123 0.0118802 0.0122632 0.0126644 0.0130693 0.0134679 0.0138457 0.0141937 0.0144912 0.0147399 0.0149426 0.0150907 0.015183 0.0153331 0.0155135 0.0158003 0.0160028 0.01617 0.0162824 0.0162953 0.0161487 0.0159336 0.0156648 0.0154029 0.0151482 0.0147911 0.0144163 0.0140515 0.0136887 0.0133177 0.0129375 0.0125655 0.0121936 0.0117997 0.0113945 0.0109837 0.0105776 0.0101822 0.00980068 0.00943428 0.00908373 0.00874937 0.00843135 0.00812973 0.00784448 0.0075755 0.00732266 0.00708576 0.00686461 0.00665899 0.00646868 0.00629344 0.00613308 0.00598737 0.00585614 0.00573921 0.00563642 0.00554762 0.0054727 0.00541154 0.00536406 0.0053302 0.0053099 0.00530314 
0.0041451 0.00415021 0.00416554 0.00419114 0.00422706 0.00427337 0.00433016 0.00439758 0.00447575 0.00456486 0.00466511 0.00477673 0.0049 0.00503519 0.00518266 0.00534275 0.00551586 0.00570242 0.00590288 0.00611768 0.00634727 0.00659209 0.00685251 0.00712878 0.00742099 0.0077288 0.00805112 0.00838533 0.00872668 0.00906934 0.00938202 0.00971429 0.0100187 0.0103165 0.0106237 0.0109679 0.0113711 0.0117521 0.0121395 0.0125606 0.0129939 0.0134396 0.0138802 0.0142947 0.0146755 0.0150113 0.015289 0.015522 0.0157059 0.0158457 0.0160552 0.0162449 0.0165014 0.0167311 0.0169111 0.0170437 0.0170637 0.0169164 0.0166816 0.016363 0.016062 0.015778 0.0153802 0.0149861 0.0145918 0.014198 0.0138069 0.013425 0.0130373 0.0126486 0.0122101 0.0117684 0.0113141 0.0108704 0.0104436 0.0100355 0.00964614 0.0092755 0.00892337 0.00858953 0.00827378 0.00797587 0.00769554 0.00743251 0.00718648 0.00695714 0.00674418 0.00654732 0.00636624 0.00620069 0.0060504 0.00591514 0.0057947 0.00568888 0.00559752 0.00552046 0.00545759 0.00540879 0.00537399 0.00535314 0.00534619 
0.0041721 0.00417731 0.00419296 0.00421908 0.00425573 0.00430299 0.00436096 0.00442978 0.0045096 0.00460062 0.00470304 0.00481712 0.00494315 0.00508144 0.00523235 0.00539628 0.00557366 0.00576497 0.00597071 0.00619141 0.00642761 0.00667986 0.00694872 0.00723468 0.00753815 0.00785915 0.00819647 0.00854536 0.008894 0.00922572 0.0095296 0.00984624 0.0101692 0.0104738 0.010789 0.0111821 0.0116181 0.0120211 0.0124709 0.0129223 0.013343 0.0138221 0.0143099 0.0147653 0.0151893 0.0155753 0.0158765 0.0161564 0.0163994 0.0166184 0.0169097 0.017157 0.0173833 0.0176247 0.0178133 0.0179266 0.0179269 0.0177719 0.0174914 0.0171615 0.0168011 0.0164301 0.0160283 0.0156083 0.015176 0.0147428 0.0143166 0.0139007 0.0135012 0.0130965 0.0126633 0.0121933 0.0116712 0.0111816 0.0107199 0.0102829 0.00986893 0.00947682 0.00910577 0.00875514 0.00842443 0.00811315 0.00782085 0.00754711 0.00729148 0.00705355 0.00683292 0.00662919 0.00644201 0.00627103 0.00611595 0.00597649 0.00585239 0.00574341 0.00564937 0.00557009 0.00550542 0.00545525 0.00541947 0.00539804 0.0053909 
0.00420005 0.00420537 0.00422134 0.00424799 0.0042854 0.00433364 0.00439282 0.00446309 0.00454462 0.00463759 0.00474225 0.00485885 0.0049877 0.00512915 0.00528357 0.00545139 0.00563308 0.00582917 0.00604022 0.00626682 0.00650964 0.00676937 0.0070468 0.00734287 0.0076588 0.00799609 0.0083555 0.00873187 0.00910361 0.00943598 0.00974761 0.0100411 0.0103549 0.0106665 0.0110267 0.0114793 0.011925 0.012366 0.0128357 0.0132912 0.0137404 0.014255 0.0147816 0.0152861 0.0157495 0.0161387 0.0164687 0.0168328 0.0171597 0.0174906 0.0178111 0.0181062 0.0183709 0.0186341 0.0188311 0.0189321 0.0189082 0.0187204 0.0184153 0.0180492 0.0176489 0.0171937 0.0167607 0.0162892 0.0157998 0.0153154 0.0148438 0.0143914 0.0139427 0.013489 0.0130489 0.0125757 0.0120349 0.0115021 0.0110061 0.01054 0.0101006 0.0096861 0.00929524 0.00892704 0.00858066 0.00825541 0.00795063 0.00766571 0.00740009 0.00715323 0.00692461 0.00671376 0.00652024 0.00634365 0.00618361 0.00603978 0.00591189 0.00579965 0.00570283 0.00562125 0.00555472 0.00550312 0.00546634 0.0054443 0.00543696 
0.00422878 0.00423421 0.00425051 0.00427772 0.0043159 0.00436515 0.00442558 0.00449734 0.0045806 0.00467558 0.00478252 0.00490169 0.00503342 0.00517807 0.00533604 0.00550779 0.00569382 0.00589471 0.00611105 0.00634353 0.0065929 0.00686002 0.00714595 0.00745222 0.00778135 0.00813786 0.00852832 0.0089532 0.00931177 0.00963028 0.00994859 0.0102342 0.0105144 0.0108933 0.0113139 0.0117706 0.0122386 0.0127081 0.0131885 0.0136719 0.0141667 0.0147497 0.0153403 0.0158917 0.0163801 0.0168028 0.0172794 0.0177251 0.0180204 0.0184454 0.0188201 0.0191505 0.0194661 0.0197854 0.0199991 0.0200901 0.0200374 0.0198084 0.019471 0.0190573 0.0185878 0.0180708 0.0175748 0.0170247 0.0164558 0.0159108 0.0153959 0.0148946 0.0143966 0.0138978 0.0134047 0.0129127 0.0123827 0.0118241 0.0112984 0.0108041 0.0103391 0.00990165 0.00949037 0.00910397 0.00874139 0.00840167 0.00808398 0.00778753 0.0075116 0.00725552 0.00701867 0.00680049 0.00660044 0.00641806 0.00625291 0.0061046 0.00597281 0.00585721 0.00575755 0.00567359 0.00560516 0.0055521 0.00551428 0.00549162 0.00548407 