<?xml version="1.0"?>
<VTKFile type="StructuredGrid" version="0.1">
    <StructuredGrid WholeExtent="0 100 0 100 0 0">
        <Piece Extent="0 100 0 100 0 0">
            <Points>
                <DataArray type="Float64" NumberOfComponents="3" format="ascii">
-15 -15 0
-15 -14.7 0
-15 -14.4 0
-15 -14.1 0
-15 -13.8 0
-15 -13.5 0
-15 -13.2 0
-15 -12.9 0
-15 -12.6 0
-15 -12.3 0
-15 -12 0
-15 -11.7 0
-15 -11.4 0
-15 -11.1 0
-15 -10.8 0
-15 -10.5 0
-15 -10.2 0
-15 -9.9 0
-15 -9.6 0
-15 -9.3 0
-15 -9 0
-15 -8.7 0
-15 -8.4 0
-15 -8.1 0
-15 -7.8 0
-15 -7.5 0
-15 -7.2 0
-15 -6.9 0
-15 -6.6 0
-15 -6.3 0
-15 -6 0
-15 -5.7 0
-15 -5.4 0
-15 -5.1 0
-15 -4.8 0
-15 -4.5 0
-15 -4.2 0
-15 -3.9 0
-15 -3.6 0
-15 -3.3 0
-15 -3 0
-15 -2.7 0
-15 -2.4 0
-15 -2.1 0
-15 -1.8 0
-15 -1.5 0
-15 -1.2 0
-15 -0.9 0
-15 -0.6 0
-15 -0.3 0
-15 0 0
-15 0.3 0
-15 0.6 0
-15 0.9 0
-15 1.2 0
-15 1.5 0
-15 1.8 0
-15 2.1 0
-15 2.4 0
-15 2.7 0
-15 3 0
-15 3.3 0
-15 3.6 0
-15 3.9 0
-15 4.2 0
-15 4.5 0
-15 4.8 0
-15 5.1 0
-15 5.4 0
-15 5.7 0
-15 6 0
-15 6.3 0
-15 6.6 0
-15 6.9 0
-15 7.2 0
-15 7.5 0
-15 7.8 0
-15 8.1 0
-15 8.4 0
-15 8.7 0
-15 9 0
-15 9.3 0
-15 9.6 0
-15 9.9 0
-15 10.2 0
-15 10.5 0
-15 10.8 0
-15 11.1 0
-15 11.4 0
-15 11.7 0
-15 12 0
-15 12.3 0
-15 12.6 0
-15 12.9 0
-15 13.2 0
-15 13.5 0
-15 13.8 0
-15 14.1 0
-15 14.4 0
-15 14.7 0
-15 15 0
-14.7 -15 0
-14.7 -14.7 0
-14.7 -14.4 0
-14.7 -14.1 0
-14.7 -13.8 0
-14.7 -13.5 0
-14.7 -13.2 0
-14.7 -12.9 0
-14.7 -12.6 0
-14.7 -12.3 0
-14.7 -12 0
-14.7 -11.7 0
-14.7 -11.4 0
-14.7 -11.1 0
-14.7 -10.8 0
-14.7 -10.5 0
-14.7 -10.2 0
-14.7 -9.9 0
-14.7 -9.6 0
-14.7 -9.3 0
-14.7 -9 0
-14.7 -8.7 0
-14.7 -8.4 0
-14.7 -8.1 0
-14.7 -7.8 0
-14.7 -7.5 0
-14.7 -7.2 0
-14.7 -6.9 0
-14.7 -6.6 0
-14.7 -6.3 0
-14.7 -6 0
-14.7 -5.7 0
-14.7 -5.4 0
-14.7 -5.1 0
-14.7 -4.8 0
-14.7 -4.5 0
-14.7 -4.2 0
-14.7 -3.9 0
-14.7 -3.6 0
-14.7 -3.3 0
-14.7 -3 0
-14.7 -2.7 0
-14.7 -2.4 0
-14.7 -2.1 0
-14.7 -1.8 0
-14.7 -1.5 0
-14.7 -1.2 0
-14.7 -0.9 0
-14.7 -0.6 0
-14.7 -0.3 0
-14.7 0 0
-14.7 0.3 0
-14.7 0.6 0
-14.7 0.9 0
-14.7 1.2 0
-14.7 1.5 0
-14.7 1.8 0
-14.7 2.1 0
-14.7 2.4 0
-14.7 2.7 0
-14.7 3 0
-14.7 3.3 0
-14.7 3.6 0
-14.7 3.9 0
-14.7 4.2 0
-14.7 4.5 0
-14.7 4.8 0
-14.7 5.1 0
-14.7 5.4 0
-14.7 5.7 0
-14.7 6 0
-14.7 6.3 0
-14.7 6.6 0
-14.7 6.9 0
-14.7 7.2 0
-14.7 7.5 0
-14.7 7.8 0
-14.7 8.1 0
-14.7 8.4 0
-14.7 8.7 0
-14.7 9 0
-14.7 9.3 0
-14.7 9.6 0
-14.7 9.9 0
-14.7 10.2 0
-14.7 10.5 0
-14.7 10.8 0
-14.7 11.1 0
-14.7 11.4 0
-14.7 11.7 0
-14.7 12 0
-14.7 12.3 0
-14.7 12.6 0
-14.7 12.9 0
-14.7 13.2 0
-14.7 13.5 0
-14.7 13.8 0
-14.7 14.1 0
-14.7 14.4 0
-14.7 14.7 0
-14.7 15 0
-14.4 -15 0
-14.4 -14.7 0
-14.4 -14.4 0
-14.4 -14.1 0
-14.4 -13.8 0
-14.4 -13.5 0
-14.4 -13.2 0
-14.4 -12.9 0
-14.4 -12.6 0
-14.4 -12.3 0
-14.4 -12 0
-14.4 -11.7 0
-14.4 -11.4 0
-14.4 -11.1 0
-14.4 -10.8 0
-14.4 -10.5 0
-14.4 -10.2 0
-14.4 -9.9 0
-14.4 -9.6 0
-14.4 -9.3 0
-14.4 -9 0
-14.4 -8.7 0
-14.4 -8.4 0
-14.4 -8.1 0
-14.4 -7.8 0
-14.4 -7.5 0
-14.4 -7.2 0
-14.4 -6.9 0
-14.4 -6.6 0
-14.4 -6.3 0
-14.4 -6 0
-14.4 -5.7 0
-14.4 -5.4 0
-14.4 -5.1 0
-14.4 -4.8 0
-14.4 -4.5 0
-14.4 -4.2 0
-14.4 -3.9 0
-14.4 -3.6 0
-14.4 -3.3 0
-14.4 -3 0
-14.4 -2.7 0
-14.4 -2.4 0
-14.4 -2.1 0
-14.4 -1.8 0
-14.4 -1.5 0
-14.4 -1.2 0
-14.4 -0.9 0
-14.4 -0.6 0
-14.4 -0.3 0
-14.4 0 0
-14.4 0.3 0
-14.4 0.6 0
-14.4 0.9 0
-14.4 1.2 0
-14.4 1.5 0
-14.4 1.8 0
-14.4 2.1 0
-14.4 2.4 0
-14.4 2.7 0
-14.4 3 0
-14.4 3.3 0
-14.4 3.6 0
-14.4 3.9 0
-14.4 4.2 0
-14.4 4.5 0
-14.4 4.8 0
-14.4 5.1 0
-14.4 5.4 0
-14.4 5.7 0
-14.4 6 0
-14.4 6.3 0
-14.4 6.6 0
-14.4 6.9 0
-14.4 7.2 0
-14.4 7.5 0
-14.4 7.8 0
-14.4 8.1 0
-14.4 8.4 0
-14.4 8.7 0
-14.4 9 0
-14.4 9.3 0
-14.4 9.6 0
-14.4 9.9 0
-14.4 10.2 0
-14.4 10.5 0
-14.4 10.8 0
-14.4 11.1 0
-14.4 11.4 0
-14.4 11.7 0
-14.4 12 0
-14.4 12.3 0
-14.4 12.6 0
-14.4 12.9 0
-14.4 13.2 0
-14.4 13.5 0
-14.4 13.8 0
-14.4 14.1 0
-14.4 14.4 0
-14.4 14.7 0
-14.4 15 0
-14.1 -15 0
-14.1 -14.7 0
-14.1 -14.4 0
-14.1 -14.1 0
-14.1 -13.8 0
-14.1 -13.5 0
-14.1 -13.2 0
-14.1 -12.9 0
-14.1 -12.6 0
-14.1 -12.3 0
-14.1 -12 0
-14.1 -11.7 0
-14.1 -11.4 0
-14.1 -11.1 0
-14.1 -10.8 0
-14.1 -10.5 0
-14.1 -10.2 0
-14.1 -9.9 0
-14.1 -9.6 0
-14.1 -9.3 0
-14.1 -9 0
-14.1 -8.7 0
-14.1 -8.4 0
-14.1 -8.1 0
-14.1 -7.8 0
-14.1 -7.5 0
-14.1 -7.2 0
-14.1 -6.9 0
-14.1 -6.6 0
-14.1 -6.3 0
-14.1 -6 0
-14.1 -5.7 0
-14.1 -5.4 0
-14.1 -5.1 0
-14.1 -4.8 0
-14.1 -4.5 0
-14.1 -4.2 0
-14.1 -3.9 0
-14.1 -3.6 0
-14.1 -3.3 0
-14.1 -3 0
-14.1 -2.7 0
-14.1 -2.4 0
-14.1 -2.1 0
-14.1 -1.8 0
-14.1 -1.5 0
-14.1 -1.2 0
-14.1 -0.9 0
-14.1 -0.6 0
-14.1 -0.3 0
-14.1 0 0
-14.1 0.3 0
-14.1 0.6 0
-14.1 0.9 0
-14.1 1.2 0
-14.1 1.5 0
-14.1 1.8 0
-14.1 2.1 0
-14.1 2.4 0
-14.1 2.7 0
-14.1 3 0
-14.1 3.3 0
-14.1 3.6 0
-14.1 3.9 0
-14.1 4.2 0
-14.1 4.5 0
-14.1 4.8 0
-14.1 5.1 0
-14.1 5.4 0
-14.1 5.7 0
-14.1 6 0
-14.1 6.3 0
-14.1 6.6 0
-14.1 6.9 0
-14.1 7.2 0
-14.1 7.5 0
-14.1 7.8 0
-14.1 8.1 0
-14.1 8.4 0
-14.1 8.7 0
-14.1 9 0
-14.1 9.3 0
-14.1 9.6 0
-14.1 9.9 0
-14.1 10.2 0
-14.1 10.5 0
-14.1 10.8 0
-14.1 11.1 0
-14.1 11.4 0
-14.1 11.7 0
-14.1 12 0
-14.1 12.3 0
-14.1 12.6 0
-14.1 12.9 0
-14.1 13.2 0
-14.1 13.5 0
-14.1 13.8 0
-14.1 14.1 0
-14.1 14.4 0
-14.1 14.7 0
-14.1 15 0
-13.8 -15 0
-13.8 -14.7 0
-13.8 -14.4 0
-13.8 -14.1 0
-13.8 -13.8 0
-13.8 -13.5 0
-13.8 -13.2 0
-13.8 -12.9 0
-13.8 -12.6 0
-13.8 -12.3 0
-13.8 -12 0
-13.8 -11.7 0
-13.8 -11.4 0
-13.8 -11.1 0
-13.8 -10.8 0
-13.8 -10.5 0
-13.8 -10.2 0
-13.8 -9.9 0
-13.8 -9.6 0
-13.8 -9.3 0
-13.8 -9 0
-13.8 -8.7 0
-13.8 -8.4 0
-13.8 -8.1 0
-13.8 -7.8 0
-13.8 -7.5 0
-13.8 -7.2 0
-13.8 -6.9 0
-13.8 -6.6 0
-13.8 -6.3 0
-13.8 -6 0
-13.8 -5.7 0
-13.8 -5.4 0
-13.8 -5.1 0
-13.8 -4.8 0
-13.8 -4.5 0
-13.8 -4.2 0
-13.8 -3.9 0
-13.8 -3.6 0
-13.8 -3.3 0
-13.8 -3 0
-13.8 -2.7 0
-13.8 -2.4 0
-13.8 -2.1 0
-13.8 -1.8 0
-13.8 -1.5 0
-13.8 -1.2 0
-13.8 -0.9 0
-13.8 -0.6 0
-13.8 -0.3 0
-13.8 0 0
-13.8 0.3 0
-13.8 0.6 0
-13.8 0.9 0
-13.8 1.2 0
-13.8 1.5 0
-13.8 1.8 0
-13.8 2.1 0
-13.8 2.4 0
-13.8 2.7 0
-13.8 3 0
-13.8 3.3 0
-13.8 3.6 0
-13.8 3.9 0
-13.8 4.2 0
-13.8 4.5 0
-13.8 4.8 0
-13.8 5.1 0
-13.8 5.4 0
-13.8 5.7 0
-13.8 6 0
-13.8 6.3 0
-13.8 6.6 0
-13.8 6.9 0
-13.8 7.2 0
-13.8 7.5 0
-13.8 7.8 0
-13.8 8.1 0
-13.8 8.4 0
-13.8 8.7 0
-13.8 9 0
-13.8 9.3 0
-13.8 9.6 0
-13.8 9.9 0
-13.8 10.2 0
-13.8 10.5 0
-13.8 10.8 0
-13.8 11.1 0
-13.8 11.4 0
-13.8 11.7 0
-13.8 12 0
-13.8 12.3 0
-13.8 12.6 0
-13.8 12.9 0
-13.8 13.2 0
-13.8 13.5 0
-13.8 13.8 0
-13.8 14.1 0
-13.8 14.4 0
-13.8 14.7 0
-13.8 15 0
-13.5 -15 0
-13.5 -14.7 0
-13.5 -14.4 0
-13.5 -14.1 0
-13.5 -13.8 0
-13.5 -13.5 0
-13.5 -13.2 0
-13.5 -12.9 0
-13.5 -12.6 0
-13.5 -12.3 0
-13.5 -12 0
-13.5 -11.7 0
-13.5 -11.4 0
-13.5 -11.1 0
-13.5 -10.8 0
-13.5 -10.5 0
-13.5 -10.2 0
-13.5 -9.9 0
-13.5 -9.6 0
-13.5 -9.3 0
-13.5 -9 0
-13.5 -8.7 0
-13.5 -8.4 0
-13.5 -8.1 0
-13.5 -7.8 0
-13.5 -7.5 0
-13.5 -7.2 0
-13.5 -6.9 0
-13.5 -6.6 0
-13.5 -6.3 0
-13.5 -6 0
-13.5 -5.7 0
-13.5 -5.4 0
-13.5 -5.1 0
-13.5 -4.8 0
-13.5 -4.5 0
-13.5 -4.2 0
-13.5 -3.9 0
-13.5 -3.6 0
-13.5 -3.3 0
-13.5 -3 0
-13.5 -2.7 0
-13.5 -2.4 0
-13.5 -2.1 0
-13.5 -1.8 0
-13.5 -1.5 0
-13.5 -1.2 0
-13.5 -0.9 0
-13.5 -0.6 0
-13.5 -0.3 0
-13.5 0 0
-13.5 0.3 0
-13.5 0.6 0
-13.5 0.9 0
-13.5 1.2 0
-13.5 1.5 0
-13.5 1.8 0
-13.5 2.1 0
-13.5 2.4 0
-13.5 2.7 0
-13.5 3 0
-13.5 3.3 0
-13.5 3.6 0
-13.5 3.9 0
-13.5 4.2 0
-13.5 4.5 0
-13.5 4.8 0
-13.5 5.1 0
-13.5 5.4 0
-13.5 5.7 0
-13.5 6 0
-13.5 6.3 0
-13.5 6.6 0
-13.5 6.9 0
-13.5 7.2 0
-13.5 7.5 0
-13.5 7.8 0
-13.5 8.1 0
-13.5 8.4 0
-13.5 8.7 0
-13.5 9 0
-13.5 9.3 0
-13.5 9.6 0
-13.5 9.9 0
-13.5 10.2 0
-13.5 10.5 0
-13.5 10.8 0
-13.5 11.1 0
-13.5 11.4 0
-13.5 11.7 0
-13.5 12 0
-13.5 12.3 0
-13.5 12.6 0
-13.5 12.9 0
-13.5 13.2 0
-13.5 13.5 0
-13.5 13.8 0
-13.5 14.1 0
-13.5 14.4 0
-13.5 14.7 0
-13.5 15 0
-13.2 -15 0
-13.2 -14.7 0
-13.2 -14.4 0
-13.2 -14.1 0
-13.2 -13.8 0
-13.2 -13.5 0
-13.2 -13.2 0
-13.2 -12.9 0
-13.2 -12.6 0
-13.2 -12.3 0
-13.2 -12 0
-13.2 -11.7 0
-13.2 -11.4 0
-13.2 -11.1 0
-13.2 -10.8 0
-13.2 -10.5 0
-13.2 -10.2 0
-13.2 -9.9 0
-13.2 -9.6 0
-13.2 -9.3 0
-13.2 -9 0
-13.2 -8.7 0
-13.2 -8.4 0
-13.2 -8.1 0
-13.2 -7.8 0
-13.2 -7.5 0
-13.2 -7.2 0
-13.2 -6.9 0
-13.2 -6.6 0
-13.2 -6.3 0
-13.2 -6 0
-13.2 -5.7 0
-13.2 -5.4 0
-13.2 -5.1 0
-13.2 -4.8 0
-13.2 -4.5 0
-13.2 -4.2 0
-13.2 -3.9 0
-13.2 -3.6 0
-13.2 -3.3 0
-13.2 -3 0
-13.2 -2.7 0
-13.2 -2.4 0
-13.2 -2.1 0
-13.2 -1.8 0
-13.2 -1.5 0
-13.2 -1.2 0
-13.2 -0.9 0
-13.2 -0.6 0
-13.2 -0.3 0
-13.2 0 0
-13.2 0.3 0
-13.2 0.6 0
-13.2 0.9 0
-13.2 1.2 0
-13.2 1.5 0
-13.2 1.8 0
-13.2 2.1 0
-13.2 2.4 0
-13.2 2.7 0
-13.2 3 0
-13.2 3.3 0
-13.2 3.6 0
-13.2 3.9 0
-13.2 4.2 0
-13.2 4.5 0
-13.2 4.8 0
-13.2 5.1 0
-13.2 5.4 0
-13.2 5.7 0
-13.2 6 0
-13.2 6.3 0
-13.2 6.6 0
-13.2 6.9 0
-13.2 7.2 0
-13.2 7.5 0
-13.2 7.8 0
-13.2 8.1 0
-13.2 8.4 0
-13.2 8.7 0
-13.2 9 0
-13.2 9.3 0
-13.2 9.6 0
-13.2 9.9 0
-13.2 10.2 0
-13.2 10.5 0
-13.2 10.8 0
-13.2 11.1 0
-13.2 11.4 0
-13.2 11.7 0
-13.2 12 0
-13.2 12.3 0
-13.2 12.6 0
-13.2 12.9 0
-13.2 13.2 0
-13.2 13.5 0
-13.2 13.8 0
-13.2 14.1 0
-13.2 14.4 0
-13.2 14.7 0
-13.2 15 0
-12.9 -15 0
-12.9 -14.7 0
-12.9 -14.4 0
-12.9 -14.1 0
-12.9 -13.8 0
-12.9 -13.5 0
-12.9 -13.2 0
-12.9 -12.9 0
-12.9 -12.6 0
-12.9 -12.3 0
-12.9 -12 0
-12.9 -11.7 0
-12.9 -11.4 0
-12.9 -11.1 0
-12.9 -10.8 0
-12.9 -10.5 0
-12.9 -10.2 0
-12.9 -9.9 0
-12.9 -9.6 0
-12.9 -9.3 0
-12.9 -9 0
-12.9 -8.7 0
-12.9 -8.4 0
-12.9 -8.1 0
-12.9 -7.8 0
-12.9 -7.5 0
-12.9 -7.2 0
-12.9 -6.9 0
-12.9 -6.6 0
-12.9 -6.3 0
-12.9 -6 0
-12.9 -5.7 0
-12.9 -5.4 0
-12.9 -5.1 0
-12.9 -4.8 0
-12.9 -4.5 0
-12.9 -4.2 0
-12.9 -3.9 0
-12.9 -3.6 0
-12.9 -3.3 0
-12.9 -3 0
-12.9 -2.7 0
-12.9 -2.4 0
-12.9 -2.1 0
-12.9 -1.8 0
-12.9 -1.5 0
-12.9 -1.2 0
-12.9 -0.9 0
-12.9 -0.6 0
-12.9 -0.3 0
-12.9 0 0
-12.9 0.3 0
-12.9 0.6 0
-12.9 0.9 0
-12.9 1.2 0
-12.9 1.5 0
-12.9 1.8 0
-12.9 2.1 0
-12.9 2.4 0
-12.9 2.7 0
-12.9 3 0
-12.9 3.3 0
-12.9 3.6 0
-12.9 3.9 0
-12.9 4.2 0
-12.9 4.5 0
-12.9 4.8 0
-12.9 5.1 0
-12.9 5.4 0
-12.9 5.7 0
-12.9 6 0
-12.9 6.3 0
-12.9 6.6 0
-12.9 6.9 0
-12.9 7.2 0
-12.9 7.5 0
-12.9 7.8 0
-12.9 8.1 0
-12.9 8.4 0
-12.9 8.7 0
-12.9 9 0
[...]
            <PointData>
                <DataArray type="Float64" Name="c1" format="ascii">
0.00371403 0.00371862 0.00373239 0.00375535 0.00378753 0.00382895 0.00387965 0.00393967 0.00400906 0.00408785 0.00417611 0.00427386 0.00438115 0.004498 0.00462443 0.00476043 0.00490598 0.00506101 0.00522545 0.00539917 0.005582 0.00577372 0.00597405 0.00618265 0.00639911 0.00662292 0.00685352 0.00709022 0.00733226 0.00757877 0.00782876 0.00808114 0.00833472 0.00858819 0.00884016 0.00908916 0.00933367 0.00957213 0.00980302 0.0100249 0.0102365 0.0104366 0.0106243 0.0107987 0.0109589 0.0111044 0.0112342 0.0113477 0.011444 0.0115224 0.0115823 0.011623 0.0116443 0.0116459 0.0116278 0.0115899 0.0115326 0.0114562 0.011361 0.0112477 0.0111168 0.0109691 0.0108052 0.0106262 0.0104331 0.0102273 0.0100102 0.00978343 0.00954872 0.00930782 0.00906248 0.00881438 0.00856512 0.00831619 0.00806898 0.00782472 0.00758457 0.00734954 0.00712054 0.00689839 0.00668379 0.00647737 0.00627967 0.00609115 0.00591221 0.00574318 0.00558433 0.00543589 0.00529805 0.00517095 0.0050547 0.00494938 0.00485507 0.0047718 0.0046996 0.00463849 0.00458849 0.0045496 0.00452182 0.00450515 0.00449959 
0.00371563 0.00372023 0.00373401 0.00375701 0.00378924 0.00383072 0.0038815 0.00394161 0.0040111 0.00409003 0.00417842 0.00427634 0.00438381 0.00450086 0.00462752 0.00476377 0.00490959 0.00506492 0.00522969 0.00540378 0.005587 0.00577915 0.00597995 0.00618906 0.00640606 0.00663047 0.0068617 0.00709909 0.00734187 0.00758916 0.00783998 0.00809325 0.00834777 0.00860222 0.00885522 0.00910527 0.00935084 0.00959035 0.00982226 0.0100451 0.0102575 0.0104584 0.0106468 0.0108218 0.0109827 0.0111287 0.0112591 0.0113731 0.01147 0.0115488 0.011609 0.0116501 0.0116716 0.0116732 0.0116551 0.0116171 0.0115596 0.0114829 0.0113875 0.0112738 0.0111425 0.0109941 0.0108297 0.0106499 0.010456 0.0102492 0.010031 0.00980316 0.00956728 0.00932522 0.00907872 0.00882951 0.00857919 0.00832926 0.00808109 0.00783595 0.00759496 0.00735915 0.00712943 0.0069066 0.00669138 0.00648438 0.00628614 0.00609713 0.00591774 0.00574829 0.00558907 0.00544029 0.00530214 0.00517476 0.00505826 0.00495272 0.00485821 0.00477477 0.00470243 0.0046412 0.0045911 0.00455213 0.0045243 0.0045076 0.00450203 
0.00372043 0.00372504 0.00373889 0.00376199 0.00379436 0.00383602 0.00388703 0.00394742 0.00401723 0.00409653 0.00418535 0.00428375 0.00439177 0.00450943 0.00463675 0.00477375 0.00492039 0.00507664 0.0052424 0.00541757 0.00560198 0.00579542 0.00599762 0.00620824 0.00642689 0.00665307 0.00688621 0.00712565 0.00737062 0.00762026 0.00787359 0.00812952 0.00838686 0.00864427 0.00890036 0.00915359 0.00940238 0.00964507 0.00988005 0.0101057 0.0103208 0.0105239 0.0107143 0.0108912 0.0110539 0.0112017 0.0113338 0.0114495 0.0115479 0.0116281 0.0116895 0.0117313 0.0117534 0.0117553 0.0117371 0.0116988 0.0116407 0.0115633 0.0114669 0.011352 0.0112194 0.0110695 0.0109032 0.0107212 0.0105247 0.0103151 0.0100937 0.00986238 0.00962298 0.00937739 0.00912743 0.00887487 0.00862135 0.00836839 0.00811738 0.00786956 0.00762608 0.00738793 0.00715604 0.00693119 0.0067141 0.00650537 0.00630553 0.00611504 0.0059343 0.00576361 0.00560325 0.00545345 0.00531437 0.00518615 0.00506891 0.00496271 0.00486762 0.00478367 0.0047109 0.00464931 0.00459892 0.00455973 0.00453174 0.00451494 0.00450934 
0.00372839 0.00373304 0.00374699 0.00377025 0.00380285 0.00384483 0.00389622 0.00395706 0.00402741 0.00410733 0.00419686 0.00429606 0.00440497 0.00452364 0.00465209 0.00479032 0.00493833 0.00509608 0.00526349 0.00544046 0.00562684 0.00582242 0.00602694 0.00624009 0.00646146 0.00669058 0.00692689 0.00716973 0.00741836 0.00767191 0.00792941 0.00818978 0.00845182 0.00871419 0.00897546 0.00923406 0.0094883 0.00973642 0.00997663 0.0102072 0.0104265 0.0106335 0.0108272 0.0110071 0.0111727 0.0113234 0.0114585 0.0115771 0.0116781 0.0117606 0.0118239 0.0118672 0.0118901 0.0118924 0.0118741 0.0118352 0.0117762 0.0116974 0.0115994 0.0114828 0.0113479 0.0111955 0.0110261 0.0108406 0.0106398 0.0104252 0.0101984 0.00996126 0.00971588 0.0094643 0.0092085 0.00895031 0.00869144 0.00843343 0.00817767 0.00792541 0.00767777 0.00743575 0.00720024 0.00697204 0.00675183 0.00654022 0.00633772 0.00614479 0.00596179 0.00578904 0.00562681 0.0054753 0.00533468 0.00520507 0.00508659 0.00497929 0.00488323 0.00479845 0.00472496 0.00466278 0.00461191 0.00457234 0.00454409 0.00452713 0.00452148 
0.00373947 0.00374417 0.00375825 0.00378175 0.00381468 0.00385708 0.003909 0.00397048 0.00404157 0.00412235 0.00421287 0.00431318 0.00442335 0.00454342 0.00467342 0.00481338 0.00496329 0.00512312 0.00529283 0.00547231 0.00566142 0.00585998 0.00606774 0.00628439 0.00650955 0.00674277 0.00698349 0.00723108 0.0074848 0.00774381 0.00800714 0.00827373 0.00854236 0.00881172 0.00908033 0.00934656 0.00960864 0.00986462 0.0101124 0.01035 0.0105755 0.0107877 0.0109859 0.0111698 0.0113393 0.0114941 0.0116335 0.0117562 0.011861 0.0119469 0.0120129 0.0120582 0.0120824 0.0120852 0.0120666 0.0120269 0.0119665 0.0118858 0.0117856 0.0116664 0.0115286 0.0113727 0.0111993 0.0110087 0.010802 0.0105803 0.0103456 0.0101001 0.00984605 0.00958589 0.00932175 0.00905561 0.00878921 0.00852411 0.0082617 0.00800322 0.00774977 0.00750234 0.0072618 0.00702892 0.00680438 0.00658875 0.00638254 0.00618619 0.00600006 0.00582445 0.0056596 0.00550572 0.00536295 0.00523141 0.0051112 0.00500237 0.00490497 0.00481902 0.00474454 0.00468152 0.00462998 0.00458989 0.00456127 0.00454409 0.00453837 
0.00375361 0.00375836 0.00377263 0.00379642 0.00382977 0.00387272 0.0039253 0.00398759 0.00405964 0.00414151 0.00423328 0.00433502 0.00444678 0.00456863 0.00470062 0.00484277 0.00499511 0.00515761 0.00533024 0.00551292 0.00570552 0.00590787 0.00611976 0.00634088 0.00657088 0.00680932 0.00705568 0.00730932 0.00756955 0.00783554 0.00810635 0.00838092 0.00865806 0.00893646 0.00921463 0.00949091 0.00976341 0.01003 0.0102881 0.0105352 0.0107688 0.0109875 0.0111909 0.0113795 0.0115538 0.011714 0.011859 0.0119873 0.0120974 0.0121878 0.0122574 0.0123054 0.0123312 0.0123346 0.0123156 0.0122746 0.0122121 0.012129 0.0120258 0.0119034 0.011762 0.0116021 0.0114237 0.011227 0.0110124 0.0107814 0.0105361 0.0102792 0.0100135 0.00974198 0.0094669 0.00919038 0.00891423 0.00864 0.00836906 0.00810261 0.00784174 0.00758739 0.00734041 0.00710155 0.00687145 0.00665069 0.00643975 0.00623904 0.00604891 0.00586963 0.00570144 0.00554452 0.00539901 0.005265 0.00514259 0.00503181 0.00493269 0.00484525 0.0047695 0.00470542 0.00465302 0.00461227 0.00458318 0.00456573 0.00455991 
0.00377072 0.00377554 0.00379002 0.00381417 0.00384803 0.00389163 0.00394503 0.00400829 0.00408149 0.00416469 0.00425798 0.00436143 0.00447513 0.00459914 0.00473352 0.00487833 0.0050336 0.00519932 0.00537549 0.00556203 0.00575885 0.00596581 0.00618268 0.00640922 0.00664507 0.00688983 0.007143 0.00740399 0.00767211 0.00794658 0.00822648 0.00851078 0.00879834 0.00908785 0.00937785 0.00966671 0.00995248 0.0102328 0.0105047 0.0107643 0.0110081 0.0112345 0.0114434 0.0116364 0.0118161 0.0119829 0.0121353 0.0122713 0.0123883 0.0124845 0.0125587 0.0126099 0.0126376 0.0126417 0.012622 0.0125791 0.0125139 0.0124274 0.0123206 0.0121944 0.012049 0.0118847 0.0117009 0.0114971 0.0112731 0.0110301 0.0107708 0.0104989 0.0102183 0.00993224 0.00964344 0.00935409 0.00906596 0.00878057 0.00849923 0.00822309 0.0079532 0.00769044 0.00743565 0.00718953 0.0069527 0.00672572 0.00650903 0.00630303 0.00610804 0.00592432 0.00575208 0.00559149 0.00544265 0.00530566 0.00518057 0.00506743 0.00496623 0.00487699 0.0047997 0.00473434 0.0046809 0.00463935 0.00460969 0.0045919 0.00458597 
0.00379069 0.0037956 0.00381033 0.0038349 0.00386934 0.00391371 0.00396806 0.00403247 0.004107 0.00419175 0.00428681 0.00439226 0.00450821 0.00463474 0.00477192 0.00491983 0.00507852 0.005248 0.00542829 0.00561935 0.0058211 0.00603341 0.00625611 0.00648896 0.00673165 0.0069838 0.00724493 0.0075145 0.00779186 0.00807625 0.00836683 0.00866259 0.00896245 0.00926514 0.00956928 0.00987331 0.0101754 0.0104733 0.0107634 0.0110401 0.0112965 0.0115311 0.0117447 0.0119402 0.0121252 0.0123004 0.012463 0.012609 0.012735 0.0128386 0.0129183 0.0129734 0.0130035 0.0130081 0.0129873 0.0129417 0.0128727 0.0127818 0.0126705 0.0125398 0.0123904 0.0122218 0.012033 0.0118219 0.0115867 0.0113285 0.0110509 0.0107596 0.01046 0.010156 0.00985063 0.00954594 0.00924364 0.0089451 0.00865155 0.00836406 0.00808358 0.00781098 0.00754703 0.0072924 0.0070477 0.00681342 0.00659 0.00637781 0.00617714 0.00598822 0.00581124 0.00564634 0.00549362 0.00535314 0.00522493 0.00510902 0.0050054 0.00491405 0.00483496 0.00476811 0.00471345 0.00467097 0.00464064 0.00462246 0.00461639 
0.00381342 0.00381842 0.00383343 0.00385848 0.00389359 0.00393883 0.00399426 0.00405996 0.00413602 0.00422253 0.00431959 0.00442733 0.00454583 0.00467522 0.00481558 0.00496701 0.00512958 0.00530334 0.00548832 0.00568451 0.00589186 0.00611027 0.00633959 0.00657963 0.00683009 0.00709063 0.00736083 0.00764017 0.00792806 0.00822379 0.00852657 0.00883549 0.00914949 0.00946739 0.00978789 0.0101096 0.0104311 0.010751 0.0110667 0.0113672 0.0116386 0.0118817 0.0120972 0.0122885 0.0124784 0.0126652 0.0128422 0.0130021 0.0131397 0.0132522 0.0133382 0.0133978 0.0134307 0.013436 0.0134133 0.0133637 0.0132893 0.0131925 0.0130755 0.0129399 0.0127864 0.0126147 0.0124225 0.0122055 0.0119579 0.0116803 0.0113779 0.0110611 0.0107377 0.0104122 0.0100873 0.0097649 0.00944633 0.00913276 0.00882527 0.00852479 0.00823223 0.00794838 0.00767397 0.00740963 0.00715592 0.00691331 0.00668221 0.00646295 0.0062558 0.00606095 0.00587857 0.00570877 0.00555162 0.00540716 0.0052754 0.00515633 0.00504995 0.00495621 0.00487507 0.00480651 0.00475047 0.00470693 0.00467585 0.00465721 0.004651 
0.00383876 0.00384387 0.00385919 0.00388477 0.00392063 0.00396684 0.00402347 0.00409062 0.00416836 0.00425683 0.00435614 0.0044664 0.00458776 0.00472032 0.00486423 0.00501958 0.00518648 0.005365 0.0055552 0.00575711 0.00597069 0.0061959 0.00643261 0.00668065 0.00693978 0.00720969 0.00748999 0.00778023 0.00807986 0.00838827 0.00870474 0.00902844 0.0093584 0.00969348 0.0100324 0.0103739 0.0107173 0.0110643 0.0114264 0.0117565 0.0120417 0.0122931 0.0125082 0.0126723 0.0128696 0.0130751 0.0132742 0.0134531 0.0136055 0.0137284 0.0138206 0.0138855 0.0139221 0.0139282 0.0139029 0.0138471 0.0137648 0.0136599 0.0135355 0.013394 0.0132368 0.0130639 0.0128723 0.0126549 0.0123938 0.0120913 0.0117529 0.0114022 0.0110495 0.0106989 0.0103519 0.0100096 0.00967291 0.00934257 0.00901949 0.0087045 0.00839841 0.00810196 0.00781582 0.00754059 0.00727679 0.00702486 0.00678516 0.00655799 0.00634357 0.0061421 0.00595368 0.0057784 0.0056163 0.00546739 0.00533166 0.00520909 0.00509962 0.0050032 0.00491979 0.00484932 0.00479174 0.00474701 0.00471509 0.00469594 0.00468957 
0.00386657 0.00387179 0.00388746 0.00391362 0.0039503 0.00399757 0.00405552 0.00412424 0.00420384 0.00429446 0.00439621 0.00450925 0.00463372 0.00476978 0.00491756 0.00507721 0.00524885 0.00543259 0.00562851 0.00583668 0.00605711 0.00628977 0.00653458 0.0067914 0.00706004 0.00734022 0.00763161 0.0079338 0.00824633 0.00856868 0.00890023 0.00924029 0.00958798 0.00994219 0.0103015 0.0106642 0.0110302 0.0114071 0.011796 0.0121097 0.0123862 0.0126416 0.0128648 0.0130579 0.0132877 0.013527 0.0137621 0.0139666 0.0141372 0.0142717 0.0143672 0.0144384 0.0144809 0.0144892 0.0144599 0.0143939 0.0142998 0.0141837 0.0140495 0.0139004 0.0137395 0.0135681 0.0133838 0.0131838 0.0129067 0.0125734 0.0121745 0.0117783 0.0113915 0.0110132 0.0106424 0.0102786 0.00992217 0.00957348 0.00923328 0.0089023 0.00858129 0.00827093 0.00797185 0.0076846 0.00740967 0.00714744 0.00689826 0.00666237 0.00643997 0.00623119 0.00603613 0.00585482 0.00568728 0.00553349 0.0053934 0.00526696 0.0051541 0.00505475 0.00496883 0.00489627 0.004837 0.00479097 0.00475812 0.00473843 0.00473187 
0.00389668 0.00390203 0.00391807 0.00394485 0.00398242 0.00403084 0.00409021 0.00416063 0.00424224 0.00433517 0.00443957 0.00455561 0.00468345 0.00482327 0.00497525 0.00513953 0.0053163 0.00550568 0.00570779 0.00592274 0.00615056 0.00639129 0.00664486 0.0069112 0.00719013 0.00748143 0.00778482 0.00809994 0.00842642 0.00876383 0.00911173 0.00946962 0.00983682 0.0102123 0.0105941 0.0109794 0.0113648 0.0117465 0.0120977 0.0123695 0.0126403 0.0129098 0.0131748 0.0134806 0.0137316 0.0140185 0.0143166 0.0145501 0.0147415 0.0148907 0.0149755 0.015058 0.0151121 0.0151259 0.0150917 0.0150065 0.0148946 0.0147631 0.0146157 0.0144561 0.0142897 0.0141218 0.013947 0.013692 0.013378 0.0130241 0.0126288 0.0121788 0.0117575 0.0113517 0.0109566 0.0105704 0.0101929 0.00982445 0.00946568 0.0091173 0.00878001 0.00845446 0.00814125 0.0078409 0.00755382 0.00728039 0.00702088 0.0067755 0.00654441 0.0063277 0.00612542 0.00593757 0.00576413 0.00560504 0.00546023 0.0053296 0.00521307 0.00511054 0.00502191 0.00494708 0.00488598 0.00483854 0.0048047 0.00478441 0.00477765 
0.00392891 0.00393439 0.00395084 0.00397829 0.0040168 0.00406644 0.00412733 0.00419958 0.00428333 0.00437873 0.00448596 0.0046052 0.00473664 0.00488048 0.00503692 0.00520617 0.0053884 0.00558381 0.00579254 0.00601472 0.00625047 0.00649982 0.00676278 0.0070393 0.00732926 0.00763247 0.0079487 0.00827764 0.00861899 0.00897244 0.00933775 0.00971472 0.0101031 0.0105022 0.0109099 0.0113215 0.0117301 0.0120944 0.0123862 0.0126569 0.0129414 0.0132334 0.0135359 0.0138773 0.0141747 0.014534 0.0148233 0.015068 0.0152813 0.0154666 0.0156243 0.015745 0.0158231 0.0158498 0.0158135 0.0156845 0.0155471 0.0153966 0.0152322 0.0150568 0.0148793 0.0147201 0.014473 0.01413 0.0137797 0.0134138 0.0130475 0.0125845 0.0121406 0.0117114 0.0112928 0.0108837 0.0104841 0.0100945 0.00971576 0.00934856 0.00899364 0.00865166 0.00832318 0.00800865 0.00770848 0.00742296 0.00715232 0.00689674 0.0066563 0.00643107 0.00622104 0.00602617 0.00584639 0.00568162 0.00553174 0.00539663 0.00527617 0.00517023 0.00507869 0.00500144 0.00493838 0.00488943 0.00485452 0.00483359 0.00482662 
0.00396308 0.0039687 0.00398557 0.00401372 0.00405323 0.00410417 0.00416666 0.00424084 0.00432685 0.00442486 0.00453508 0.0046577 0.00479295 0.00494104 0.00510221 0.00527669 0.00546471 0.00566648 0.00588221 0.00611206 0.00635618 0.00661467 0.00688759 0.00717492 0.00747658 0.00779245 0.00812229 0.00846586 0.00882287 0.00919311 0.00957654 0.0099734 0.0103842 0.0108094 0.0112476 0.0116917 0.0120758 0.0124015 0.0126722 0.0129709 0.0132793 0.0135943 0.0139097 0.0142163 0.0146229 0.0149968 0.0152618 0.0155182 0.0157525 0.0159676 0.0161928 0.0163744 0.0164895 0.0165448 0.0165398 0.0164103 0.0162515 0.0160831 0.0158986 0.0156986 0.0154903 0.0152903 0.0149661 0.0146096 0.0142337 0.0138421 0.0134409 0.0129979 0.012542 0.0120926 0.0116511 0.0112182 0.0107951 0.0103829 0.00998262 0.00959513 0.00922124 0.00886158 0.00851669 0.00818698 0.00787278 0.00757434 0.00729183 0.00702536 0.00677498 0.00654067 0.00632239 0.00612006 0.00593356 0.00576275 0.0056075 0.00546763 0.005343 0.00523345 0.00513883 0.00505901 0.00499388 0.00494333 0.00490728 0.00488567 0.00487848 
0.00399897 0.00400474 0.00402205 0.00405095 0.0040915 0.0041438 0.00420797 0.00428417 0.00437254 0.0044733 0.00458664 0.00471281 0.00485203 0.00500457 0.00517069 0.00535066 0.00554473 0.00575317 0.00597623 0.00621412 0.00646703 0.00673513 0.00701851 0.00731722 0.00763123 0.00796043 0.00830463 0.00866357 0.00903693 0.00942448 0.00982626 0.0102429 0.0106761 0.0111287 0.0116032 0.0120153 0.0123532 0.0126857 0.0129975 0.0133141 0.0136506 0.0139997 0.0143476 0.0147256 0.0151463 0.0154512 0.0157415 0.0160178 0.0162709 0.0165002 0.0167217 0.016925 0.0170745 0.0171682 0.0172085 0.0171685 0.0170049 0.0168253 0.0166207 0.0163892 0.0161326 0.0158535 0.0155169 0.0151402 0.014738 0.0143183 0.0138939 0.0134426 0.0129696 0.0124986 0.0120326 0.0115742 0.0111257 0.0106889 0.0102654 0.00985602 0.00946176 0.00908319 0.00872079 0.00837491 0.00804581 0.00773367 0.0074386 0.00716062 0.00689972 0.00665584 0.00642888 0.00621868 0.0060251 0.00584795 0.00568703 0.00554217 0.00541315 0.0052998 0.00520195 0.00511944 0.00505213 0.0049999 0.00496266 0.00494034 0.00493291 
0.00403638 0.0040423 0.00406007 0.00408974 0.00413138 0.00418509 0.00425101 0.0043293 0.00442014 0.00452374 0.00464033 0.00477017 0.00491352 0.00507068 0.00524194 0.0054276 0.00562796 0.00584333 0.006074 0.00632024 0.0065823 0.0068604 0.0071547 0.00746531 0.00779225 0.00813546 0.00849475 0.00886981 0.0092602 0.00966546 0.0100853 0.0105204 0.0109729 0.0114496 0.0119153 0.0122882 0.0126526 0.0130097 0.0133587 0.0137067 0.0140735 0.01446 0.0148551 0.0152827 0.0156579 0.0159318 0.0162662 0.0165679 0.0168407 0.0170838 0.0173304 0.017563 0.0177475 0.0178739 0.0179358 0.0179255 0.0178146 0.0176334 0.0174111 0.0171473 0.0168456 0.0165027 0.0161358 0.0157288 0.0152941 0.0148367 0.0143858 0.0139222 0.013429 0.012933 0.0124392 0.0119521 0.0114755 0.0110119 0.010563 0.0101301 0.00971406 0.00931534 0.00893437 0.00857139 0.00822658 0.00790003 0.00759174 0.00730169 0.00702978 0.00677589 0.00653983 0.00632143 0.00612045 0.00593667 0.00576986 0.00561977 0.00548619 0.00536889 0.00526767 0.00518235 0.00511277 0.00505879 0.00502031 0.00499725 0.00498957 
0.00407509 0.00408116 0.00409941 0.00412987 0.00417263 0.0042278 0.00429552 0.00437596 0.00446934 0.00457587 0.00469581 0.00482944 0.00497705 0.00513896 0.00531551 0.00550703 0.00571387 0.00593637 0.00617488 0.00642973 0.00670123 0.00698966 0.00729527 0.00761823 0.00795865 0.00831652 0.00869168 0.00908372 0.00949199 0.00991553 0.0103532 0.0108043 0.011269 0.0117493 0.0121946 0.0125862 0.0129731 0.013356 0.0137375 0.0141227 0.0145196 0.0149364 0.0153599 0.0157788 0.0161613 0.0165079 0.0168562 0.0171739 0.0174659 0.0177041 0.0180027 0.0182831 0.0185085 0.0186722 0.0187718 0.0187544 0.0186904 0.018525 0.0182858 0.0179873 0.0176558 0.0172389 0.0168296 0.016382 0.0159087 0.015386 0.0148965 0.0144412 0.0139262 0.0133999 0.0128727 0.0123524 0.011844 0.0113507 0.0108744 0.0104162 0.00997687 0.0095568 0.00915624 0.0087753 0.00841403 0.00807241 0.00775035 0.00744772 0.00716436 0.00690006 0.00665457 0.00642765 0.00621901 0.00602837 0.00585545 0.00569997 0.00556166 0.00544027 0.00533557 0.00524734 0.00517541 0.00511963 0.00507987 0.00505605 0.00504812 
0.00411485 0.00412109 0.00413982 0.00417109 0.004215 0.00427166 0.00434123 0.00442388 0.00451986 0.00462938 0.00475275 0.00489025 0.00504222 0.00520899 0.00539094 0.00558845 0.0058019 0.00603169 0.00627822 0.00654187 0.00682302 0.00712204 0.00743925 0.00777494 0.00812932 0.00850249 0.00889433 0.00930443 0.00973187 0.010175 0.0106314 0.0110978 0.011571 0.0120493 0.0124794 0.0128993 0.0133057 0.0137122 0.0141232 0.0145427 0.0149743 0.0154285 0.0158818 0.0163225 0.0167408 0.0171613 0.0175014 0.017844 0.0181678 0.0184325 0.0187408 0.0190905 0.01936 0.0195628 0.0197093 0.0197809 0.019711 0.0195341 0.0192637 0.0189054 0.0185119 0.0180516 0.0175828 0.017105 0.0166273 0.0161087 0.0155285 0.0150213 0.014472 0.0139039 0.0133346 0.0127747 0.0122302 0.011704 0.0111979 0.0107127 0.0102487 0.00980617 0.00938509 0.00898541 0.00860701 0.00824975 0.00791343 0.0075978 0.00730262 0.00702758 0.00677238 0.00653668 0.00632016 0.00612247 0.00594327 0.00578225 0.00563909 0.0055135 0.00540522 0.00531402 0.00523968 0.00518205 0.00514097 0.00511637 0.00510818 