<?xml version="1.0"?>
<VTKFile type="StructuredGrid" version="0.1">
    <StructuredGrid WholeExtent="0 100 0 100 0 0">
        <Piece Extent="0 100 0 100 0 0">
            <Points>
                <DataArray type="Float64" NumberOfComponents="3" format="ascii">
-15 -15 0
-15 -14.7 0
-15 -14.4 0
-15 -14.1 0
-15 -13.8 0
-15 -13.5 0
-15 -13.2 0
-15 -12.9 0
-15 -12.6 0
-15 -12.3 0
-15 -12 0
-15 -11.7 0
-15 -11.4 0
-15 -11.1 0
-15 -10.8 0
-15 -10.5 0
-15 -10.2 0
-15 -9.9 0
-15 -9.6 0
-15 -9.3 0
-15 -9 0
-15 -8.7 0
-15 -8.4 0
-15 -8.1 0
-15 -7.8 0
-15 -7.5 0
-15 -7.2 0
-15 -6.9 0
-15 -6.6 0
-15 -6.3 0
-15 -6 0
-15 -5.7 0
-15 -5.4 0
-15 -5.1 0
-15 -4.8 0
-15 -4.5 0
-15 -4.2 0
-15 -3.9 0
-15 -3.6 0
-15 -3.3 0
-15 -3 0
-15 -2.7 0
-15 -2.4 0
-15 -2.1 0
-15 -1.8 0
-15 -1.5 0
-15 -1.2 0
-15 -0.9 0
-15 -0.6 0
-15 -0.3 0
-15 0 0
-15 0.3 0
-15 0.6 0
-15 0.9 0
-15 1.2 0
-15 1.5 0
-15 1.8 0
-15 2.1 0
-15 2.4 0
-15 2.7 0
-15 3 0
-15 3.3 0
-15 3.6 0
-15 3.9 0
-15 4.2 0
-15 4.5 0
-15 4.8 0
-15 5.1 0
-15 5.4 0
-15 5.7 0
-15 6 0
-15 6.3 0
-15 6.6 0
-15 6.9 0
-15 7.2 0
-15 7.5 0
-15 7.8 0
-15 8.1 0
-15 8.4 0
-15 8.7 0
-15 9 0
-15 9.3 0
-15 9.6 0
-15 9.9 0
-15 10.2 0
-15 10.5 0
-15 10.8 0
-15 11.1 0
-15 11.4 0
-15 11.7 0
-15 12 0
-15 12.3 0
-15 12.6 0
-15 12.9 0
-15 13.2 0
-15 13.5 0
-15 13.8 0
-15 14.1 0
-15 14.4 0
-15 14.7 0
-15 15 0
-14.7 -15 0
-14.7 -14.7 0
-14.7 -14.4 0
-14.7 -14.1 0
-14.7 -13.8 0
-14.7 -13.5 0
-14.7 -13.2 0
-14.7 -12.9 0
-14.7 -12.6 0
-14.7 -12.3 0
-14.7 -12 0
-14.7 -11.7 0
-14.7 -11.4 0
-14.7 -11.1 0
-14.7 -10.8 0
-14.7 -10.5 0
-14.7 -10.2 0
-14.7 -9.9 0
-14.7 -9.6 0
-14.7 -9.3 0
-14.7 -9 0
-14.7 -8.7 0
-14.7 -8.4 0
-14.7 -8.1 0
-14.7 -7.8 0
-14.7 -7.5 0
-14.7 -7.2 0
-14.7 -6.9 0
-14.7 -6.6 0
-14.7 -6.3 0
-14.7 -6 0
-14.7 -5.7 0
-14.7 -5.4 0
-14.7 -5.1 0
-14.7 -4.8 0
-14.7 -4.5 0
-14.7 -4.2 0
-14.7 -3.9 0
-14.7 -3.6 0
-14.7 -3.3 0
-14.7 -3 0
-14.7 -2.7 0
-14.7 -2.4 0
-14.7 -2.1 0
-14.7 -1.8 0
-14.7 -1.5 0
-14.7 -1.2 0
-14.7 -0.9 0
-14.7 -0.6 0
-14.7 -0.3 0
-14.7 0 0
-14.7 0.3 0
-14.7 0.6 0
-14.7 0.9 0
-14.7 1.2 0
-14.7 1.5 0
-14.7 1.8 0
-14.7 2.1 0
-14.7 2.4 0
-14.7 2.7 0
-14.7 3 0
-14.7 3.3 0
-14.7 3.6 0
-14.7 3.9 0
-14.7 4.2 0
-14.7 4.5 0
-14.7 4.8 0
-14.7 5.1 0
-14.7 5.4 0
-14.7 5.7 0
-14.7 6 0
-14.7 6.3 0
-14.7 6.6 0
-14.7 6.9 0
-14.7 7.2 0
-14.7 7.5 0
-14.7 7.8 0
-14.7 8.1 0
-14.7 8.4 0
-14.7 8.7 0
-14.7 9 0
-14.7 9.3 0
-14.7 9.6 0
-14.7 9.9 0
-14.7 10.2 0
-14.7 10.5 0
-14.7 10.8 0
-14.7 11.1 0
-14.7 11.4 0
-14.7 11.7 0
-14.7 12 0
-14.7 12.3 0
-14.7 12.6 0
-14.7 12.9 0
-14.7 13.2 0
-14.7 13.5 0
-14.7 13.8 0
-14.7 14.1 0
-14.7 14.4 0
-14.7 14.7 0
-14.7 15 0
-14.4 -15 0
-14.4 -14.7 0
-14.4 -14.4 0
-14.4 -14.1 0
-14.4 -13.8 0
-14.4 -13.5 0
-14.4 -13.2 0
-14.4 -12.9 0
-14.4 -12.6 0
-14.4 -12.3 0
-14.4 -12 0
-14.4 -11.7 0
-14.4 -11.4 0
-14.4 -11.1 0
-14.4 -10.8 0
-14.4 -10.5 0
-14.4 -10.2 0
-14.4 -9.9 0
-14.4 -9.6 0
-14.4 -9.3 0
-14.4 -9 0
-14.4 -8.7 0
-14.4 -8.4 0
-14.4 -8.1 0
-14.4 -7.8 0
-14.4 -7.5 0
-14.4 -7.2 0
-14.4 -6.9 0
-14.4 -6.6 0
-14.4 -6.3 0
-14.4 -6 0
-14.4 -5.7 0
-14.4 -5.4 0
-14.4 -5.1 0
-14.4 -4.8 0
-14.4 -4.5 0
-14.4 -4.2 0
-14.4 -3.9 0
-14.4 -3.6 0
-14.4 -3.3 0
-14.4 -3 0
-14.4 -2.7 0
-14.4 -2.4 0
-14.4 -2.1 0
-14.4 -1.8 0
-14.4 -1.5 0
-14.4 -1.2 0
-14.4 -0.9 0
-14.4 -0.6 0
-14.4 -0.3 0
-14.4 0 0
-14.4 0.3 0
-14.4 0.6 0
-14.4 0.9 0
-14.4 1.2 0
-14.4 1.5 0
-14.4 1.8 0
-14.4 2.1 0
-14.4 2.4 0
-14.4 2.7 0
-14.4 3 0
-14.4 3.3 0
-14.4 3.6 0
-14.4 3.9 0
-14.4 4.2 0
-14.4 4.5 0
-14.4 4.8 0
-14.4 5.1 0
-14.4 5.4 0
-14.4 5.7 0
-14.4 6 0
-14.4 6.3 0
-14.4 6.6 0
-14.4 6.9 0
-14.4 7.2 0
-14.4 7.5 0
-14.4 7.8 0
-14.4 8.1 0
-14.4 8.4 0
-14.4 8.7 0
-14.4 9 0
-14.4 9.3 0
-14.4 9.6 0
-14.4 9.9 0
-14.4 10.2 0
-14.4 10.5 0
-14.4 10.8 0
-14.4 11.1 0
-14.4 11.4 0
-14.4 11.7 0
-14.4 12 0
-14.4 12.3 0
-14.4 12.6 0
-14.4 12.9 0
-14.4 13.2 0
-14.4 13.5 0
-14.4 13.8 0
-14.4 14.1 0
-14.4 14.4 0
-14.4 14.7 0
-14.4 15 0
-14.1 -15 0
-14.1 -14.7 0
-14.1 -14.4 0
-14.1 -14.1 0
-14.1 -13.8 0
-14.1 -13.5 0
-14.1 -13.2 0
-14.1 -12.9 0
-14.1 -12.6 0
-14.1 -12.3 0
-14.1 -12 0
-14.1 -11.7 0
-14.1 -11.4 0
-14.1 -11.1 0
-14.1 -10.8 0
-14.1 -10.5 0
-14.1 -10.2 0
-14.1 -9.9 0
-14.1 -9.6 0
-14.1 -9.3 0
-14.1 -9 0
-14.1 -8.7 0
-14.1 -8.4 0
-14.1 -8.1 0
-14.1 -7.8 0
-14.1 -7.5 0
-14.1 -7.2 0
-14.1 -6.9 0
-14.1 -6.6 0
-14.1 -6.3 0
-14.1 -6 0
-14.1 -5.7 0
-14.1 -5.4 0
-14.1 -5.1 0
-14.1 -4.8 0
-14.1 -4.5 0
-14.1 -4.2 0
-14.1 -3.9 0
-14.1 -3.6 0
-14.1 -3.3 0
-14.1 -3 0
-14.1 -2.7 0
-14.1 -2.4 0
-14.1 -2.1 0
-14.1 -1.8 0
-14.1 -1.5 0
-14.1 -1.2 0
-14.1 -0.9 0
-14.1 -0.6 0
-14.1 -0.3 0
-14.1 0 0
-14.1 0.3 0
-14.1 0.6 0
-14.1 0.9 0
-14.1 1.2 0
-14.1 1.5 0
-14.1 1.8 0
-14.1 2.1 0
-14.1 2.4 0
-14.1 2.7 0
-14.1 3 0
-14.1 3.3 0
-14.1 3.6 0
-14.1 3.9 0
-14.1 4.2 0
-14.1 4.5 0
-14.1 4.8 0
-14.1 5.1 0
-14.1 5.4 0
-14.1 5.7 0
-14.1 6 0
-14.1 6.3 0
-14.1 6.6 0
-14.1 6.9 0
-14.1 7.2 0
-14.1 7.5 0
-14.1 7.8 0
-14.1 8.1 0
-14.1 8.4 0
-14.1 8.7 0
-14.1 9 0
-14.1 9.3 0
-14.1 9.6 0
-14.1 9.9 0
-14.1 10.2 0
-14.1 10.5 0
-14.1 10.8 0
-14.1 11.1 0
-14.1 11.4 0
-14.1 11.7 0
-14.1 12 0
-14.1 12.3 0
-14.1 12.6 0
-14.1 12.9 0
-14.1 13.2 0
-14.1 13.5 0
-14.1 13.8 0
-14.1 14.1 0
-14.1 14.4 0
-14.1 14.7 0
-14.1 15 0
-13.8 -15 0
-13.8 -14.7 0
-13.8 -14.4 0
-13.8 -14.1 0
-13.8 -13.8 0
-13.8 -13.5 0
-13.8 -13.2 0
-13.8 -12.9 0
-13.8 -12.6 0
-13.8 -12.3 0
-13.8 -12 0
-13.8 -11.7 0
-13.8 -11.4 0
-13.8 -11.1 0
-13.8 -10.8 0
-13.8 -10.5 0
-13.8 -10.2 0
-13.8 -9.9 0
-13.8 -9.6 0
-13.8 -9.3 0
-13.8 -9 0
-13.8 -8.7 0
-13.8 -8.4 0
-13.8 -8.1 0
-13.8 -7.8 0
-13.8 -7.5 0
-13.8 -7.2 0
-13.8 -6.9 0
-13.8 -6.6 0
-13.8 -6.3 0
-13.8 -6 0
-13.8 -5.7 0
-13.8 -5.4 0
-13.8 -5.1 0
-13.8 -4.8 0
-13.8 -4.5 0
-13.8 -4.2 0
-13.8 -3.9 0
-13.8 -3.6 0
-13.8 -3.3 0
-13.8 -3 0
-13.8 -2.7 0
-13.8 -2.4 0
-13.8 -2.1 0
-13.8 -1.8 0
-13.8 -1.5 0
-13.8 -1.2 0
-13.8 -0.9 0
-13.8 -0.6 0
-13.8 -0.3 0
-13.8 0 0
-13.8 0.3 0
-13.8 0.6 0
-13.8 0.9 0
-13.8 1.2 0
-13.8 1.5 0
-13.8 1.8 0
-13.8 2.1 0
-13.8 2.4 0
-13.8 2.7 0
-13.8 3 0
-13.8 3.3 0
-13.8 3.6 0
-13.8 3.9 0
-13.8 4.2 0
-13.8 4.5 0
-13.8 4.8 0
-13.8 5.1 0
-13.8 5.4 0
-13.8 5.7 0
-13.8 6 0
-13.8 6.3 0
-13.8 6.6 0
-13.8 6.9 0
-13.8 7.2 0
-13.8 7.5 0
-13.8 7.8 0
-13.8 8.1 0
-13.8 8.4 0
-13.8 8.7 0
-13.8 9 0
-13.8 9.3 0
-13.8 9.6 0
-13.8 9.9 0
-13.8 10.2 0
-13.8 10.5 0
-13.8 10.8 0
-13.8 11.1 0
-13.8 11.4 0
-13.8 11.7 0
-13.8 12 0
-13.8 12.3 0
-13.8 12.6 0
-13.8 12.9 0
-13.8 13.2 0
-13.8 13.5 0
-13.8 13.8 0
-13.8 14.1 0
-13.8 14.4 0
-13.8 14.7 0
-13.8 15 0
-13.5 -15 0
-13.5 -14.7 0
-13.5 -14.4 0
-13.5 -14.1 0
-13.5 -13.8 0
-13.5 -13.5 0
-13.5 -13.2 0
-13.5 -12.9 0
-13.5 -12.6 0
-13.5 -12.3 0
-13.5 -12 0
-13.5 -11.7 0
-13.5 -11.4 0
-13.5 -11.1 0
-13.5 -10.8 0
-13.5 -10.5 0
-13.5 -10.2 0
-13.5 -9.9 0
-13.5 -9.6 0
-13.5 -9.3 0
-13.5 -9 0
-13.5 -8.7 0
-13.5 -8.4 0
-13.5 -8.1 0
-13.5 -7.8 0
-13.5 -7.5 0
-13.5 -7.2 0
-13.5 -6.9 0
-13.5 -6.6 0
-13.5 -6.3 0
-13.5 -6 0
-13.5 -5.7 0
-13.5 -5.4 0
-13.5 -5.1 0
-13.5 -4.8 0
-13.5 -4.5 0
-13.5 -4.2 0
-13.5 -3.9 0
-13.5 -3.6 0
-13.5 -3.3 0
-13.5 -3 0
-13.5 -2.7 0
-13.5 -2.4 0
-13.5 -2.1 0
-13.5 -1.8 0
-13.5 -1.5 0
-13.5 -1.2 0
-13.5 -0.9 0
-13.5 -0.6 0
-13.5 -0.3 0
-13.5 0 0
-13.5 0.3 0
-13.5 0.6 0
-13.5 0.9 0
-13.5 1.2 0
-13.5 1.5 0
-13.5 1.8 0
-13.5 2.1 0
-13.5 2.4 0
-13.5 2.7 0
-13.5 3 0
-13.5 3.3 0
-13.5 3.6 0
-13.5 3.9 0
-13.5 4.2 0
-13.5 4.5 0
-13.5 4.8 0
-13.5 5.1 0
-13.5 5.4 0
-13.5 5.7 0
-13.5 6 0
-13.5 6.3 0
-13.5 6.6 0
-13.5 6.9 0
-13.5 7.2 0
-13.5 7.5 0
-13.5 7.8 0
-13.5 8.1 0
-13.5 8.4 0
-13.5 8.7 0
-13.5 9 0
-13.5 9.3 0
-13.5 9.6 0
-13.5 9.9 0
-13.5 10.2 0
-13.5 10.5 0
-13.5 10.8 0
-13.5 11.1 0
-13.5 11.4 0
-13.5 11.7 0
-13.5 12 0
-13.5 12.3 0
-13.5 12.6 0
-13.5 12.9 0
-13.5 13.2 0
-13.5 13.5 0
-13.5 13.8 0
-13.5 14.1 0
-13.5 14.4 0
-13.5 14.7 0
-13.5 15 0
-13.2 -15 0
-13.2 -14.7 0
-13.2 -14.4 0
-13.2 -14.1 0
-13.2 -13.8 0
-13.2 -13.5 0
-13.2 -13.2 0
-13.2 -12.9 0
-13.2 -12.6 0
-13.2 -12.3 0
-13.2 -12 0
-13.2 -11.7 0
-13.2 -11.4 0
-13.2 -11.1 0
-13.2 -10.8 0
-13.2 -10.5 0
-13.2 -10.2 0
-13.2 -9.9 0
-13.2 -9.6 0
-13.2 -9.3 0
-13.2 -9 0
-13.2 -8.7 0
-13.2 -8.4 0
-13.2 -8.1 0
-13.2 -7.8 0
-13.2 -7.5 0
-13.2 -7.2 0
-13.2 -6.9 0
-13.2 -6.6 0
-13.2 -6.3 0
-13.2 -6 0
-13.2 -5.7 0
-13.2 -5.4 0
-13.2 -5.1 0
-13.2 -4.8 0
-13.2 -4.5 0
-13.2 -4.2 0
-13.2 -3.9 0
-13.2 -3.6 0
-13.2 -3.3 0
-13.2 -3 0
-13.2 -2.7 0
-13.2 -2.4 0
-13.2 -2.1 0
-13.2 -1.8 0
-13.2 -1.5 0
-13.2 -1.2 0
-13.2 -0.9 0
-13.2 -0.6 0
-13.2 -0.3 0
-13.2 0 0
-13.2 0.3 0
-13.2 0.6 0
-13.2 0.9 0
-13.2 1.2 0
-13.2 1.5 0
-13.2 1.8 0
-13.2 2.1 0
-13.2 2.4 0
-13.2 2.7 0
-13.2 3 0
-13.2 3.3 0
-13.2 3.6 0
-13.2 3.9 0
-13.2 4.2 0
-13.2 4.5 0
-13.2 4.8 0
-13.2 5.1 0
-13.2 5.4 0
-13.2 5.7 0
-13.2 6 0
-13.2 6.3 0
-13.2 6.6 0
-13.2 6.9 0
-13.2 7.2 0
-13.2 7.5 0
-13.2 7.8 0
-13.2 8.1 0
-13.2 8.4 0
-13.2 8.7 0
-13.2 9 0
-13.2 9.3 0
-13.2 9.6 0
-13.2 9.9 0
-13.2 10.2 0
-13.2 10.5 0
-13.2 10.8 0
-13.2 11.1 0
-13.2 11.4 0
-13.2 11.7 0
-13.2 12 0
-13.2 12.3 0
-13.2 12.6 0
-13.2 12.9 0
-13.2 13.2 0
-13.2 13.5 0
-13.2 13.8 0
-13.2 14.1 0
-13.2 14.4 0
-13.2 14.7 0
-13.2 15 0
-12.9 -15 0
-12.9 -14.7 0
-12.9 -14.4 0
-12.9 -14.1 0
-12.9 -13.8 0
-12.9 -13.5 0
-12.9 -13.2 0
-12.9 -12.9 0
-12.9 -12.6 0
-12.9 -12.3 0
-12.9 -12 0
-12.9 -11.7 0
-12.9 -11.4 0
-12.9 -11.1 0
-12.9 -10.8 0
-12.9 -10.5 0
-12.9 -10.2 0
-12.9 -9.9 0
-12.9 -9.6 0
-12.9 -9.3 0
-12.9 -9 0
-12.9 -8.7 0
-12.9 -8.4 0
-12.9 -8.1 0
-12.9 -7.8 0
-12.9 -7.5 0
-12.9 -7.2 0
-12.9 -6.9 0
-12.9 -6.6 0
-12.9 -6.3 0
-12.9 -6 0
-12.9 -5.7 0
-12.9 -5.4 0
-12.9 -5.1 0
-12.9 -4.8 0
-12.9 -4.5 0
-12.9 -4.2 0
-12.9 -3.9 0
-12.9 -3.6 0
-12.9 -3.3 0
-12.9 -3 0
-12.9 -2.7 0
-12.9 -2.4 0
-12.9 -2.1 0
-12.9 -1.8 0
-12.9 -1.5 0
-12.9 -1.2 0
-12.9 -0.9 0
-12.9 -0.6 0
-12.9 -0.3 0
-12.9 0 0
-12.9 0.3 0
-12.9 0.6 0
-12.9 0.9 0
-12.9 1.2 0
-12.9 1.5 0
-12.9 1.8 0
-12.9 2.1 0
-12.9 2.4 0
-12.9 2.7 0
-12.9 3 0
-12.9 3.3 0
-12.9 3.6 0
-12.9 3.9 0
-12.9 4.2 0
-12.9 4.5 0
-12.9 4.8 0
-12.9 5.1 0
-12.9 5.4 0
-12.9 5.7 0
-12.9 6 0
-12.9 6.3 0
-12.9 6.6 0
-12.9 6.9 0
-12.9 7.2 0
-12.9 7.5 0
-12.9 7.8 0
-12.9 8.1 0
-12.9 8.4 0
-12.9 8.7 0
-12.9 9 0
[...]
            <PointData>
                <DataArray type="Float64" Name="c1" format="ascii">
0.000634139 0.000634895 0.000637162 0.000640938 0.00064622 0.000653003 0.00066128 0.000671042 0.000682281 0.000694983 0.000709134 0.000724717 0.000741711 0.000760093 0.000779836 0.00080091 0.000823279 0.000846904 0.000871741 0.000897739 0.000924843 0.000952992 0.000982118 0.00101215 0.00104299 0.00107457 0.00110679 0.00113954 0.00117272 0.0012062 0.00123986 0.00127357 0.0013072 0.00134059 0.00137361 0.0014061 0.0014379 0.00146885 0.0014988 0.00152759 0.00155505 0.00158104 0.0016054 0.00162799 0.00164867 0.00166731 0.0016838 0.00169803 0.00170991 0.00171936 0.00172632 0.00173075 0.00173261 0.00173189 0.00172861 0.00172278 0.00171445 0.00170367 0.00169052 0.00167509 0.00165748 0.0016378 0.0016162 0.0015928 0.00156776 0.00154122 0.00151334 0.0014843 0.00145425 0.00142337 0.00139182 0.00135976 0.00132736 0.00129477 0.00126216 0.00122966 0.00119743 0.0011656 0.00113429 0.00110364 0.00107374 0.00104472 0.00101667 0.000989682 0.000963841 0.000939225 0.000915906 0.000893947 0.000873406 0.000854336 0.000836782 0.000820786 0.000806383 0.000793606 0.00078248 0.000773029 0.000765272 0.000759223 0.000754894 0.000752293 0.000751426 
0.000634801 0.000635559 0.000637832 0.000641619 0.000646916 0.000653717 0.000662018 0.000671808 0.000683079 0.000695819 0.000710012 0.000725641 0.000742687 0.000761126 0.000780931 0.000802073 0.000824515 0.000848219 0.00087314 0.000899228 0.000926429 0.000954679 0.000983912 0.00101405 0.00104502 0.00107673 0.00110908 0.00114196 0.00117528 0.0012089 0.00124271 0.00127658 0.00131036 0.00134391 0.00137709 0.00140973 0.00144169 0.0014728 0.00150291 0.00153185 0.00155946 0.00158559 0.00161008 0.0016328 0.00165359 0.00167234 0.00168893 0.00170325 0.0017152 0.0017247 0.00173171 0.00173616 0.00173803 0.00173732 0.00173401 0.00172815 0.00171977 0.00170893 0.0016957 0.00168018 0.00166247 0.00164269 0.00162097 0.00159744 0.00157226 0.00154557 0.00151755 0.00148836 0.00145815 0.00142711 0.0013954 0.00136318 0.00133063 0.00129789 0.00126512 0.00123248 0.0012001 0.00116812 0.00113668 0.00110589 0.00107588 0.00104673 0.00101857 0.000991475 0.000965534 0.000940824 0.000917417 0.000895376 0.00087476 0.000855621 0.000838005 0.000821952 0.0008075 0.000794678 0.000783515 0.000774032 0.000766248 0.000760179 0.000755835 0.000753226 0.000752356 
0.000636784 0.000637548 0.000639841 0.000643659 0.000649 0.000655859 0.00066423 0.000674105 0.000685474 0.000698325 0.000712644 0.000728414 0.000745615 0.000764225 0.000784218 0.000805562 0.000828224 0.000852164 0.000877338 0.000903697 0.000931186 0.000959743 0.0009893 0.00101978 0.00105111 0.00108319 0.00111593 0.00114922 0.00118296 0.00121702 0.00125128 0.0012856 0.00131985 0.00135388 0.00138753 0.00142066 0.0014531 0.00148468 0.00151526 0.00154465 0.00157271 0.00159926 0.00162416 0.00164726 0.00166841 0.00168749 0.00170436 0.00171893 0.00173109 0.00174077 0.0017479 0.00175244 0.00175435 0.00175362 0.00175027 0.0017443 0.00173578 0.00172475 0.0017113 0.00169551 0.0016775 0.00165739 0.0016353 0.00161138 0.00158579 0.00155867 0.0015302 0.00150055 0.00146988 0.00143836 0.00140617 0.00137348 0.00134045 0.00130724 0.00127401 0.00124092 0.00120811 0.00117571 0.00114386 0.00111267 0.00108228 0.00105278 0.00102428 0.000996859 0.000970615 0.000945621 0.00092195 0.000899664 0.000878822 0.000859476 0.000841672 0.000825451 0.000810848 0.000797894 0.000786616 0.000777037 0.000769175 0.000763045 0.000758659 0.000756023 0.000755144 
0.000640085 0.00064086 0.000643184 0.000647055 0.00065247 0.000659425 0.000667914 0.000677929 0.000689461 0.000702498 0.000717027 0.000733032 0.000750493 0.000769389 0.000789693 0.000811377 0.000834405 0.00085874 0.000884338 0.00091115 0.000939121 0.000968189 0.000998287 0.00102934 0.00106127 0.00109398 0.00112737 0.00116135 0.00119579 0.00123058 0.00126559 0.00130068 0.00133572 0.00137054 0.001405 0.00143893 0.00147217 0.00150456 0.00153592 0.00156608 0.00159488 0.00162216 0.00164774 0.00167148 0.00169323 0.00171285 0.00173021 0.0017452 0.00175772 0.00176769 0.00177503 0.00177971 0.00178168 0.00178094 0.00177749 0.00177136 0.0017626 0.00175126 0.00173742 0.00172119 0.00170267 0.00168199 0.00165929 0.00163472 0.00160843 0.00158059 0.00155137 0.00152094 0.00148948 0.00145717 0.00142418 0.00139069 0.00135686 0.00132287 0.00128887 0.00125503 0.00122148 0.00118837 0.00115583 0.00112399 0.00109297 0.00106287 0.00103379 0.00100584 0.000979088 0.000953621 0.000929507 0.000906812 0.000885593 0.000865901 0.000847784 0.00083128 0.000816425 0.000803251 0.000791782 0.000782043 0.00077405 0.000767818 0.000763359 0.000760681 0.000759787 
0.000644697 0.000645486 0.000647854 0.0006518 0.000657319 0.000664409 0.000673063 0.000683274 0.000695035 0.000708334 0.000723158 0.000739492 0.000757318 0.000776615 0.000797357 0.000819516 0.00084306 0.00086795 0.000894143 0.000921591 0.00095024 0.000980028 0.00101089 0.00104275 0.00107552 0.00110911 0.00114343 0.00117837 0.00121381 0.00124963 0.0012857 0.00132188 0.00135802 0.00139397 0.00142956 0.00146463 0.00149902 0.00153253 0.00156501 0.00159627 0.00162613 0.00165442 0.00168097 0.00170562 0.00172822 0.00174861 0.00176666 0.00178225 0.00179528 0.00180566 0.00181331 0.00181819 0.00182025 0.00181949 0.00181591 0.00180954 0.00180043 0.00178864 0.00177426 0.00175739 0.00173816 0.00171668 0.00169311 0.00166761 0.00164033 0.00161146 0.00158117 0.00154965 0.00151707 0.00148363 0.00144951 0.00141489 0.00137994 0.00134484 0.00130976 0.00127484 0.00124026 0.00120615 0.00117264 0.00113988 0.00110796 0.00107702 0.00104714 0.00101843 0.000990963 0.000964828 0.000940093 0.000916822 0.000895072 0.000874895 0.000856336 0.000839435 0.000824228 0.000810743 0.000799007 0.000789042 0.000780865 0.000774491 0.000769931 0.000767191 0.000766278 
0.00065061 0.000651418 0.000653844 0.000657884 0.000663538 0.0006708 0.000679667 0.000690132 0.000702188 0.000715824 0.000731028 0.000747787 0.000766083 0.000785897 0.000807205 0.000829979 0.000854188 0.000879795 0.000906757 0.000935029 0.000964555 0.000995275 0.00102712 0.00106002 0.00109389 0.00112863 0.00116415 0.00120034 0.00123708 0.00127424 0.00131169 0.00134928 0.00138686 0.00142427 0.00146135 0.00149791 0.00153378 0.00156877 0.0016027 0.00163539 0.00166663 0.00169626 0.00172408 0.00174993 0.00177363 0.00179503 0.00181399 0.00183038 0.00184407 0.00185499 0.00186304 0.00186818 0.00187035 0.00186957 0.00186581 0.00185913 0.00184957 0.00183719 0.0018221 0.0018044 0.00178421 0.00176169 0.00173698 0.00171026 0.0016817 0.00165148 0.00161979 0.00158684 0.0015528 0.00151789 0.00148229 0.00144619 0.00140978 0.00137324 0.00133673 0.00130044 0.00126451 0.00122909 0.00119433 0.00116036 0.00112729 0.00109525 0.00106433 0.00103464 0.00100625 0.000979252 0.000953712 0.000929696 0.00090726 0.000886455 0.000867326 0.000849913 0.000834249 0.000820364 0.000808283 0.000798027 0.000789613 0.000783055 0.000778363 0.000775545 0.000774605 
0.000657812 0.000658644 0.000661139 0.000665297 0.000671114 0.000678589 0.000687717 0.000698492 0.000710909 0.000724958 0.000740629 0.000757909 0.000776783 0.000797232 0.000819234 0.000842763 0.000867789 0.000894278 0.000922187 0.000951472 0.000982078 0.00101395 0.00104701 0.00108119 0.00111641 0.00115257 0.00118958 0.00122731 0.00126565 0.00130448 0.00134363 0.00138298 0.00142235 0.00146159 0.0015005 0.00153892 0.00157664 0.00161347 0.00164922 0.00168369 0.00171667 0.00174796 0.00177737 0.00180471 0.0018298 0.00185247 0.00187256 0.00188993 0.00190447 0.00191605 0.00192461 0.00193007 0.00193239 0.00193157 0.0019276 0.00192052 0.00191039 0.00189728 0.00188129 0.00186254 0.00184118 0.00181734 0.00179121 0.00176296 0.00173278 0.00170088 0.00166745 0.00163271 0.00159686 0.00156011 0.00152267 0.00148473 0.0014465 0.00140817 0.00136991 0.0013319 0.0012943 0.00125727 0.00122095 0.00118549 0.001151 0.0011176 0.0010854 0.00105449 0.00102497 0.000996902 0.000970371 0.000945437 0.000922156 0.000900579 0.00088075 0.000862706 0.000846481 0.000832104 0.000819599 0.000808986 0.00080028 0.000793496 0.000788644 0.000785729 0.000784757 
0.000666288 0.000667148 0.000669726 0.000674022 0.000680034 0.00068776 0.000697197 0.000708341 0.000721185 0.000735724 0.000751949 0.000769847 0.000789407 0.00081061 0.000833437 0.000857864 0.000883863 0.000911401 0.000940438 0.00097093 0.00100282 0.00103606 0.00107058 0.0011063 0.00114314 0.001181 0.00121978 0.00125936 0.00129963 0.00134045 0.00138166 0.00142312 0.00146465 0.00150607 0.00154721 0.00158786 0.00162782 0.00166689 0.00170484 0.00174146 0.00177653 0.00180985 0.00184118 0.00187034 0.00189711 0.00192133 0.0019428 0.00196138 0.00197693 0.00198934 0.0019985 0.00200436 0.00200686 0.00200599 0.00200176 0.0019942 0.00198337 0.00196936 0.00195228 0.00193226 0.00190945 0.00188402 0.00185615 0.00182605 0.00179391 0.00175997 0.00172443 0.00168752 0.00164947 0.00161051 0.00157084 0.00153069 0.00149027 0.00144977 0.00140939 0.00136932 0.00132971 0.00129075 0.00125257 0.00121532 0.00117912 0.0011441 0.00111036 0.00107801 0.00104712 0.00101779 0.000990074 0.000964046 0.00093976 0.000917263 0.000896599 0.000877805 0.000860914 0.000845952 0.000832942 0.000821904 0.000812852 0.0008058 0.000800756 0.000797728 0.000796717 
0.00067602 0.000676911 0.000679585 0.000684041 0.000690278 0.000698295 0.00070809 0.00071966 0.000733001 0.000748108 0.000764973 0.000783589 0.000803943 0.000826022 0.000849807 0.000875278 0.000902408 0.000931166 0.000961516 0.000993414 0.00102681 0.00106165 0.00109786 0.00113538 0.0011741 0.00121395 0.00125482 0.00129658 0.00133911 0.00138226 0.0014259 0.00146984 0.00151391 0.00155793 0.00160169 0.00164499 0.0016876 0.00172931 0.00176987 0.00180905 0.00184662 0.00188234 0.00191597 0.00194729 0.00197607 0.00200212 0.00202525 0.00204527 0.00206204 0.00207542 0.00208531 0.00209164 0.00209435 0.00209343 0.00208888 0.00208074 0.00206908 0.00205399 0.00203561 0.00201406 0.00198953 0.00196219 0.00193226 0.00189994 0.00186548 0.0018291 0.00179105 0.00175158 0.00171092 0.00166933 0.00162703 0.00158426 0.00154125 0.0014982 0.00145533 0.00141282 0.00137086 0.00132962 0.00128925 0.0012499 0.00121171 0.00117479 0.00113926 0.00110521 0.00107274 0.00104192 0.00101283 0.000985526 0.000960067 0.0009365 0.000914865 0.0008952 0.000877533 0.000861891 0.000848296 0.000836764 0.000827311 0.000819947 0.000814682 0.00081152 0.000810466 
0.000686985 0.000687913 0.000690695 0.000695333 0.000701826 0.000710174 0.000720376 0.000732431 0.000746336 0.000762089 0.000779685 0.000799118 0.000820379 0.000843456 0.000868334 0.000894996 0.000923419 0.000953573 0.000985425 0.00101893 0.00105405 0.00109073 0.00112889 0.00116846 0.00120937 0.00125151 0.00129478 0.00133905 0.00138419 0.00143006 0.0014765 0.00152332 0.00157035 0.00161738 0.0016642 0.00171058 0.00175629 0.00180108 0.00184469 0.00188687 0.00192737 0.0019659 0.00200223 0.00203609 0.00206725 0.00209546 0.00212053 0.00214224 0.00216044 0.00217498 0.00218573 0.00219262 0.00219558 0.00219458 0.00218965 0.00218083 0.00216818 0.00215183 0.0021319 0.00210855 0.00208199 0.00205241 0.00202004 0.00198513 0.00194793 0.0019087 0.00186771 0.00182523 0.00178152 0.00173686 0.00169149 0.00164568 0.00159965 0.00155364 0.00150787 0.00146255 0.00141786 0.00137399 0.00133109 0.00128932 0.00124882 0.00120972 0.00117212 0.00113612 0.00110183 0.00106931 0.00103864 0.00100987 0.000983073 0.000958281 0.000935537 0.000914874 0.000896322 0.000879904 0.000865639 0.000853545 0.000843633 0.000835914 0.000830396 0.000827083 0.000825978 
0.000699159 0.000700128 0.000703032 0.000707874 0.000714654 0.000723373 0.000734031 0.00074663 0.000761169 0.000777647 0.000796064 0.000816415 0.000838695 0.000862895 0.000889005 0.00091701 0.000946889 0.000978619 0.00101217 0.0010475 0.00108457 0.00112332 0.00116369 0.00120561 0.00124899 0.00129374 0.00133974 0.00138688 0.00143501 0.00148398 0.00153362 0.00158376 0.00163418 0.00168467 0.00173501 0.00178495 0.00183423 0.00188259 0.00192974 0.0019754 0.00201928 0.0020611 0.00210056 0.00213738 0.00217129 0.00220204 0.00222936 0.00225306 0.00227294 0.00228882 0.00230058 0.00230811 0.00231135 0.00231028 0.0023049 0.00229527 0.00228147 0.00226363 0.00224189 0.00221644 0.0021875 0.0021553 0.0021201 0.00208216 0.00204178 0.00199924 0.00195484 0.00190887 0.00186164 0.00181343 0.00176452 0.00171519 0.0016657 0.00161629 0.0015672 0.00151865 0.00147083 0.00142395 0.00137817 0.00133364 0.00129052 0.00124893 0.00120898 0.00117078 0.00113441 0.00109996 0.0010675 0.00103709 0.00100877 0.000982595 0.000958598 0.000936811 0.00091726 0.000899967 0.000884949 0.000872221 0.000861793 0.000853675 0.000847871 0.000844388 0.000843226 
0.000712514 0.000713527 0.000716568 0.000721636 0.000728733 0.000737863 0.000749028 0.00076223 0.000777472 0.000794757 0.000814085 0.000835457 0.000858871 0.000884322 0.000911804 0.000941305 0.000972811 0.0010063 0.00104175 0.00107912 0.00111837 0.00115945 0.00120231 0.00124686 0.00129303 0.00134072 0.00138981 0.00144018 0.00149169 0.00154418 0.00159747 0.00165136 0.00170565 0.0017601 0.00181446 0.00186846 0.00192184 0.00197428 0.0020255 0.00207516 0.00212295 0.00216855 0.00221163 0.00225188 0.00228898 0.00232264 0.0023526 0.0023786 0.00240041 0.00241786 0.00243078 0.00243906 0.00244263 0.00244146 0.00243556 0.00242499 0.00240985 0.00239027 0.00236643 0.00233854 0.00230684 0.00227161 0.00223312 0.00219169 0.00214763 0.00210126 0.00205294 0.00200297 0.00195168 0.00189941 0.00184645 0.0017931 0.00173966 0.00168637 0.0016335 0.00158128 0.00152992 0.00147963 0.00143058 0.00138294 0.00133686 0.00129247 0.00124987 0.00120919 0.0011705 0.00113389 0.00109943 0.00106716 0.00103715 0.00100943 0.000984029 0.000960987 0.000940322 0.000922054 0.000906197 0.000892763 0.00088176 0.000873196 0.000867076 0.000863403 0.000862178 
0.000727017 0.00072808 0.000731269 0.000736585 0.000744032 0.000753614 0.000765335 0.000779201 0.000795216 0.000813388 0.00083372 0.000856217 0.00088088 0.000907712 0.000936709 0.000967865 0.00100117 0.00103661 0.00107416 0.00111379 0.00115547 0.00119915 0.00124477 0.00129226 0.00134154 0.00139252 0.00144507 0.00149908 0.00155439 0.00161083 0.00166823 0.00172637 0.00178503 0.00184395 0.00190287 0.00196151 0.00201954 0.00207666 0.00213251 0.00218675 0.00223903 0.00228896 0.0023362 0.00238039 0.00242116 0.0024582 0.00249119 0.00251984 0.0025439 0.00256315 0.00257741 0.00258656 0.00259051 0.00258922 0.00258271 0.00257104 0.00255434 0.00253275 0.00250647 0.00247576 0.00244088 0.00240214 0.00235987 0.00231441 0.00226613 0.00221538 0.00216256 0.00210801 0.0020521 0.0019952 0.00193763 0.00187972 0.00182179 0.00176412 0.00170698 0.00165062 0.00159528 0.00154115 0.00148844 0.00143731 0.00138791 0.00134038 0.00129484 0.00125139 0.00121011 0.0011711 0.0011344 0.00110008 0.00106819 0.00103875 0.00101181 0.000987375 0.000965479 0.000946133 0.000929348 0.000915135 0.000903498 0.000894443 0.000887973 0.000884091 0.000882796 
0.000742633 0.00074375 0.0007471 0.000752687 0.000760515 0.000770589 0.000782917 0.000797506 0.000814366 0.000833506 0.000854936 0.000878662 0.000904694 0.000933037 0.000963695 0.000996666 0.00103195 0.00106953 0.0011094 0.00115152 0.00119588 0.00124242 0.0012911 0.00134185 0.00139459 0.00144922 0.00150563 0.00156368 0.00162324 0.00168411 0.00174612 0.00180903 0.0018726 0.00193657 0.00200065 0.00206452 0.00212784 0.00219025 0.00225139 0.00231085 0.00236823 0.00242313 0.00247513 0.00252383 0.00256883 0.00260974 0.00264621 0.00267791 0.00270456 0.00272588 0.0027417 0.00275184 0.00275622 0.00275479 0.00274757 0.00273463 0.00271612 0.0026922 0.00266312 0.00262915 0.0025906 0.00254783 0.00250121 0.00245114 0.00239802 0.00234227 0.00228431 0.00222455 0.0021634 0.00210124 0.00203845 0.00197539 0.0019124 0.00184979 0.00178785 0.00172685 0.00166704 0.00160863 0.00155183 0.00149681 0.00144372 0.00139272 0.0013439 0.00129738 0.00125325 0.00121158 0.00117242 0.00113584 0.00110187 0.00107055 0.0010419 0.00101594 0.000992695 0.000972166 0.000954365 0.000939297 0.000926965 0.000917373 0.00091052 0.000906409 0.000905038 
0.000759321 0.000760496 0.000764022 0.000769901 0.000778141 0.000788749 0.000801734 0.000817108 0.000834883 0.000855074 0.000877694 0.000902757 0.000930277 0.000960265 0.000992731 0.00102768 0.00106512 0.00110504 0.00114744 0.0011923 0.0012396 0.00128929 0.00134134 0.00139568 0.00145223 0.0015109 0.00157158 0.00163413 0.0016984 0.00176421 0.00183135 0.0018996 0.00196868 0.00203832 0.0021082 0.00217796 0.00224725 0.00231567 0.00238278 0.00244817 0.00251137 0.00257193 0.00262937 0.00268323 0.00273306 0.00277842 0.00281889 0.0028541 0.00288371 0.00290743 0.00292502 0.00293631 0.00294117 0.00293958 0.00293153 0.00291713 0.00289652 0.00286992 0.00283759 0.00279987 0.00275711 0.00270972 0.00265812 0.00260277 0.00254413 0.00248268 0.00241888 0.00235321 0.0022861 0.002218 0.00214933 0.00208047 0.0020118 0.00194365 0.00187635 0.00181017 0.00174538 0.00168221 0.00162086 0.00156153 0.00150437 0.00144951 0.00139709 0.00134719 0.00129991 0.00125532 0.00121347 0.0011744 0.00113817 0.00110478 0.00107427 0.00104665 0.00102193 0.00100011 0.000981201 0.000965203 0.000952116 0.000941938 0.000934669 0.000930308 0.000928855 
0.000777037 0.000778275 0.000781989 0.000788183 0.000796867 0.000808048 0.000821741 0.00083796 0.000856723 0.000878047 0.000901952 0.000928458 0.000957586 0.000989354 0.00102378 0.00106088 0.00110066 0.00114313 0.00118828 0.00123612 0.00128662 0.00133976 0.00139549 0.00145377 0.00151451 0.00157763 0.00164302 0.00171054 0.00178003 0.00185132 0.00192417 0.00199836 0.0020736 0.00214958 0.00222595 0.00230235 0.00237836 0.00245354 0.00252743 0.00259954 0.00266935 0.00273634 0.00279998 0.00285974 0.00291509 0.00296554 0.0030106 0.00304984 0.00308286 0.00310932 0.00312896 0.00314155 0.00314698 0.00314517 0.00313617 0.00312007 0.00309704 0.00306734 0.00303129 0.00298925 0.00294165 0.00288895 0.00283166 0.00277028 0.00270536 0.00263742 0.002567 0.00249463 0.0024208 0.00234601 0.00227072 0.00219535 0.00212032 0.00204599 0.0019727 0.00190076 0.00183044 0.00176199 0.00169563 0.00163154 0.00156988 0.0015108 0.00145441 0.00140082 0.00135009 0.00130231 0.00125751 0.00121575 0.00117704 0.00114141 0.00110888 0.00107945 0.00105313 0.00102991 0.00100981 0.000992801 0.000978895 0.000968084 0.000960365 0.000955735 0.000954192 
0.000795733 0.000797037 0.000800953 0.000807485 0.000816642 0.000828439 0.00084289 0.000860014 0.000879835 0.000902374 0.00092766 0.000955717 0.000986575 0.00102026 0.0010568 0.00109621 0.00113852 0.00118374 0.00123189 0.00128296 0.00133694 0.00139383 0.00145358 0.00151615 0.00158148 0.00164948 0.00172004 0.00179302 0.00186828 0.00194562 0.00202481 0.00210559 0.00218768 0.00227073 0.00235438 0.00243821 0.00252177 0.00260458 0.00268612 0.00276582 0.00284312 0.00291743 0.00298813 0.00305461 0.00311628 0.00317255 0.00322288 0.00326673 0.00330367 0.00333329 0.00335527 0.00336937 0.00337543 0.00337338 0.00336326 0.00334519 0.00331937 0.0032861 0.00324574 0.00319875 0.00314559 0.00308683 0.00302302 0.00295477 0.00288269 0.00280738 0.00272946 0.00264952 0.00256811 0.0024858 0.00240308 0.00232043 0.0022383 0.00215708 0.00207715 0.00199882 0.00192239 0.00184811 0.00177622 0.0017069 0.00164031 0.0015766 0.00151588 0.00145825 0.00140378 0.00135252 0.00130453 0.00125983 0.00121844 0.00118039 0.00114567 0.00111429 0.00108624 0.00106152 0.00104012 0.00102203 0.00100724 0.000995751 0.000987548 0.000982628 0.000980989 