<?xml version="1.0"?>
<VTKFile type="StructuredGrid" version="0.1">
    <StructuredGrid WholeExtent="0 100 0 100 0 0">
        <Piece Extent="0 100 0 100 0 0">
            <Points>
                <DataArray type="Float64" NumberOfComponents="3" format="ascii">
-15 -15 0
-15 -14.7 0
-15 -14.4 0
-15 -14.1 0
-15 -13.8 0
-15 -13.5 0
-15 -13.2 0
-15 -12.9 0
-15 -12.6 0
-15 -12.3 0
-15 -12 0
-15 -11.7 0
-15 -11.4 0
-15 -11.1 0
-15 -10.8 0
-15 -10.5 0
-15 -10.2 0
-15 -9.9 0
-15 -9.6 0
-15 -9.3 0
-15 -9 0
-15 -8.7 0
-15 -8.4 0
-15 -8.1 0
-15 -7.8 0
-15 -7.5 0
-15 -7.2 0
-15 -6.9 0
-15 -6.6 0
-15 -6.3 0
-15 -6 0
-15 -5.7 0
-15 -5.4 0
-15 -5.1 0
-15 -4.8 0
-15 -4.5 0
-15 -4.2 0
-15 -3.9 0
-15 -3.6 0
-15 -3.3 0
-15 -3 0
-15 -2.7 0
-15 -2.4 0
-15 -2.1 0
-15 -1.8 0
-15 -1.5 0
-15 -1.2 0
-15 -0.9 0
-15 -0.6 0
-15 -0.3 0
-15 0 0
-15 0.3 0
-15 0.6 0
-15 0.9 0
-15 1.2 0
-15 1.5 0
-15 1.8 0
-15 2.1 0
-15 2.4 0
-15 2.7 0
-15 3 0
-15 3.3 0
-15 3.6 0
-15 3.9 0
-15 4.2 0
-15 4.5 0
-15 4.8 0
-15 5.1 0
-15 5.4 0
-15 5.7 0
-15 6 0
-15 6.3 0
-15 6.6 0
-15 6.9 0
-15 7.2 0
-15 7.5 0
-15 7.8 0
-15 8.1 0
-15 8.4 0
-15 8.7 0
-15 9 0
-15 9.3 0
-15 9.6 0
-15 9.9 0
-15 10.2 0
-15 10.5 0
-15 10.8 0
-15 11.1 0
-15 11.4 0
-15 11.7 0
-15 12 0
-15 12.3 0
-15 12.6 0
-15 12.9 0
-15 13.2 0
-15 13.5 0
-15 13.8 0
-15 14.1 0
-15 14.4 0
-15 14.7 0
-15 15 0
-14.7 -15 0
-14.7 -14.7 0
-14.7 -14.4 0
-14.7 -14.1 0
-14.7 -13.8 0
-14.7 -13.5 0
-14.7 -13.2 0
-14.7 -12.9 0
-14.7 -12.6 0
-14.7 -12.3 0
-14.7 -12 0
-14.7 -11.7 0
-14.7 -11.4 0
-14.7 -11.1 0
-14.7 -10.8 0
-14.7 -10.5 0
-14.7 -10.2 0
-14.7 -9.9 0
-14.7 -9.6 0
-14.7 -9.3 0
-14.7 -9 0
-14.7 -8.7 0
-14.7 -8.4 0
-14.7 -8.1 0
-14.7 -7.8 0
-14.7 -7.5 0
-14.7 -7.2 0
-14.7 -6.9 0
-14.7 -6.6 0
-14.7 -6.3 0
-14.7 -6 0
-14.7 -5.7 0
-14.7 -5.4 0
-14.7 -5.1 0
-14.7 -4.8 0
-14.7 -4.5 0
-14.7 -4.2 0
-14.7 -3.9 0
-14.7 -3.6 0
-14.7 -3.3 0
-14.7 -3 0
-14.7 -2.7 0
-14.7 -2.4 0
-14.7 -2.1 0
-14.7 -1.8 0
-14.7 -1.5 0
-14.7 -1.2 0
-14.7 -0.9 0
-14.7 -0.6 0
-14.7 -0.3 0
-14.7 0 0
-14.7 0.3 0
-14.7 0.6 0
-14.7 0.9 0
-14.7 1.2 0
-14.7 1.5 0
-14.7 1.8 0
-14.7 2.1 0
-14.7 2.4 0
-14.7 2.7 0
-14.7 3 0
-14.7 3.3 0
-14.7 3.6 0
-14.7 3.9 0
-14.7 4.2 0
-14.7 4.5 0
-14.7 4.8 0
-14.7 5.1 0
-14.7 5.4 0
-14.7 5.7 0
-14.7 6 0
-14.7 6.3 0
-14.7 6.6 0
-14.7 6.9 0
-14.7 7.2 0
-14.7 7.5 0
-14.7 7.8 0
-14.7 8.1 0
-14.7 8.4 0
-14.7 8.7 0
-14.7 9 0
-14.7 9.3 0
-14.7 9.6 0
-14.7 9.9 0
-14.7 10.2 0
-14.7 10.5 0
-14.7 10.8 0
-14.7 11.1 0
-14.7 11.4 0
-14.7 11.7 0
-14.7 12 0
-14.7 12.3 0
-14.7 12.6 0
-14.7 12.9 0
-14.7 13.2 0
-14.7 13.5 0
-14.7 13.8 0
-14.7 14.1 0
-14.7 14.4 0
-14.7 14.7 0
-14.7 15 0
-14.4 -15 0
-14.4 -14.7 0
-14.4 -14.4 0
-14.4 -14.1 0
-14.4 -13.8 0
-14.4 -13.5 0
-14.4 -13.2 0
-14.4 -12.9 0
-14.4 -12.6 0
-14.4 -12.3 0
-14.4 -12 0
-14.4 -11.7 0
-14.4 -11.4 0
-14.4 -11.1 0
-14.4 -10.8 0
-14.4 -10.5 0
-14.4 -10.2 0
-14.4 -9.9 0
-14.4 -9.6 0
-14.4 -9.3 0
-14.4 -9 0
-14.4 -8.7 0
-14.4 -8.4 0
-14.4 -8.1 0
-14.4 -7.8 0
-14.4 -7.5 0
-14.4 -7.2 0
-14.4 -6.9 0
-14.4 -6.6 0
-14.4 -6.3 0
-14.4 -6 0
-14.4 -5.7 0
-14.4 -5.4 0
-14.4 -5.1 0
-14.4 -4.8 0
-14.4 -4.5 0
-14.4 -4.2 0
-14.4 -3.9 0
-14.4 -3.6 0
-14.4 -3.3 0
-14.4 -3 0
-14.4 -2.7 0
-14.4 -2.4 0
-14.4 -2.1 0
-14.4 -1.8 0
-14.4 -1.5 0
-14.4 -1.2 0
-14.4 -0.9 0
-14.4 -0.6 0
-14.4 -0.3 0
-14.4 0 0
-14.4 0.3 0
-14.4 0.6 0
-14.4 0.9 0
-14.4 1.2 0
-14.4 1.5 0
-14.4 1.8 0
-14.4 2.1 0
-14.4 2.4 0
-14.4 2.7 0
-14.4 3 0
-14.4 3.3 0
-14.4 3.6 0
-14.4 3.9 0
-14.4 4.2 0
-14.4 4.5 0
-14.4 4.8 0
-14.4 5.1 0
-14.4 5.4 0
-14.4 5.7 0
-14.4 6 0
-14.4 6.3 0
-14.4 6.6 0
-14.4 6.9 0
-14.4 7.2 0
-14.4 7.5 0
-14.4 7.8 0
-14.4 8.1 0
-14.4 8.4 0
-14.4 8.7 0
-14.4 9 0
-14.4 9.3 0
-14.4 9.6 0
-14.4 9.9 0
-14.4 10.2 0
-14.4 10.5 0
-14.4 10.8 0
-14.4 11.1 0
-14.4 11.4 0
-14.4 11.7 0
-14.4 12 0
-14.4 12.3 0
-14.4 12.6 0
-14.4 12.9 0
-14.4 13.2 0
-14.4 13.5 0
-14.4 13.8 0
-14.4 14.1 0
-14.4 14.4 0
-14.4 14.7 0
-14.4 15 0
-14.1 -15 0
-14.1 -14.7 0
-14.1 -14.4 0
-14.1 -14.1 0
-14.1 -13.8 0
-14.1 -13.5 0
-14.1 -13.2 0
-14.1 -12.9 0
-14.1 -12.6 0
-14.1 -12.3 0
-14.1 -12 0
-14.1 -11.7 0
-14.1 -11.4 0
-14.1 -11.1 0
-14.1 -10.8 0
-14.1 -10.5 0
-14.1 -10.2 0
-14.1 -9.9 0
-14.1 -9.6 0
-14.1 -9.3 0
-14.1 -9 0
-14.1 -8.7 0
-14.1 -8.4 0
-14.1 -8.1 0
-14.1 -7.8 0
-14.1 -7.5 0
-14.1 -7.2 0
-14.1 -6.9 0
-14.1 -6.6 0
-14.1 -6.3 0
-14.1 -6 0
-14.1 -5.7 0
-14.1 -5.4 0
-14.1 -5.1 0
-14.1 -4.8 0
-14.1 -4.5 0
-14.1 -4.2 0
-14.1 -3.9 0
-14.1 -3.6 0
-14.1 -3.3 0
-14.1 -3 0
-14.1 -2.7 0
-14.1 -2.4 0
-14.1 -2.1 0
-14.1 -1.8 0
-14.1 -1.5 0
-14.1 -1.2 0
-14.1 -0.9 0
-14.1 -0.6 0
-14.1 -0.3 0
-14.1 0 0
-14.1 0.3 0
-14.1 0.6 0
-14.1 0.9 0
-14.1 1.2 0
-14.1 1.5 0
-14.1 1.8 0
-14.1 2.1 0
-14.1 2.4 0
-14.1 2.7 0
-14.1 3 0
-14.1 3.3 0
-14.1 3.6 0
-14.1 3.9 0
-14.1 4.2 0
-14.1 4.5 0
-14.1 4.8 0
-14.1 5.1 0
-14.1 5.4 0
-14.1 5.7 0
-14.1 6 0
-14.1 6.3 0
-14.1 6.6 0
-14.1 6.9 0
-14.1 7.2 0
-14.1 7.5 0
-14.1 7.8 0
-14.1 8.1 0
-14.1 8.4 0
-14.1 8.7 0
-14.1 9 0
-14.1 9.3 0
-14.1 9.6 0
-14.1 9.9 0
-14.1 10.2 0
-14.1 10.5 0
-14.1 10.8 0
-14.1 11.1 0
-14.1 11.4 0
-14.1 11.7 0
-14.1 12 0
-14.1 12.3 0
-14.1 12.6 0
-14.1 12.9 0
-14.1 13.2 0
-14.1 13.5 0
-14.1 13.8 0
-14.1 14.1 0
-14.1 14.4 0
-14.1 14.7 0
-14.1 15 0
-13.8 -15 0
-13.8 -14.7 0
-13.8 -14.4 0
-13.8 -14.1 0
-13.8 -13.8 0
-13.8 -13.5 0
-13.8 -13.2 0
-13.8 -12.9 0
-13.8 -12.6 0
-13.8 -12.3 0
-13.8 -12 0
-13.8 -11.7 0
-13.8 -11.4 0
-13.8 -11.1 0
-13.8 -10.8 0
-13.8 -10.5 0
-13.8 -10.2 0
-13.8 -9.9 0
-13.8 -9.6 0
-13.8 -9.3 0
-13.8 -9 0
-13.8 -8.7 0
-13.8 -8.4 0
-13.8 -8.1 0
-13.8 -7.8 0
-13.8 -7.5 0
-13.8 -7.2 0
-13.8 -6.9 0
-13.8 -6.6 0
-13.8 -6.3 0
-13.8 -6 0
-13.8 -5.7 0
-13.8 -5.4 0
-13.8 -5.1 0
-13.8 -4.8 0
-13.8 -4.5 0
-13.8 -4.2 0
-13.8 -3.9 0
-13.8 -3.6 0
-13.8 -3.3 0
-13.8 -3 0
-13.8 -2.7 0
-13.8 -2.4 0
-13.8 -2.1 0
-13.8 -1.8 0
-13.8 -1.5 0
-13.8 -1.2 0
-13.8 -0.9 0
-13.8 -0.6 0
-13.8 -0.3 0
-13.8 0 0
-13.8 0.3 0
-13.8 0.6 0
-13.8 0.9 0
-13.8 1.2 0
-13.8 1.5 0
-13.8 1.8 0
-13.8 2.1 0
-13.8 2.4 0
-13.8 2.7 0
-13.8 3 0
-13.8 3.3 0
-13.8 3.6 0
-13.8 3.9 0
-13.8 4.2 0
-13.8 4.5 0
-13.8 4.8 0
-13.8 5.1 0
-13.8 5.4 0
-13.8 5.7 0
-13.8 6 0
-13.8 6.3 0
-13.8 6.6 0
-13.8 6.9 0
-13.8 7.2 0
-13.8 7.5 0
-13.8 7.8 0
-13.8 8.1 0
-13.8 8.4 0
-13.8 8.7 0
-13.8 9 0
-13.8 9.3 0
-13.8 9.6 0
-13.8 9.9 0
-13.8 10.2 0
-13.8 10.5 0
-13.8 10.8 0
-13.8 11.1 0
-13.8 11.4 0
-13.8 11.7 0
-13.8 12 0
-13.8 12.3 0
-13.8 12.6 0
-13.8 12.9 0
-13.8 13.2 0
-13.8 13.5 0
-13.8 13.8 0
-13.8 14.1 0
-13.8 14.4 0
-13.8 14.7 0
-13.8 15 0
-13.5 -15 0
-13.5 -14.7 0
-13.5 -14.4 0
-13.5 -14.1 0
-13.5 -13.8 0
-13.5 -13.5 0
-13.5 -13.2 0
-13.5 -12.9 0
-13.5 -12.6 0
-13.5 -12.3 0
-13.5 -12 0
-13.5 -11.7 0
-13.5 -11.4 0
-13.5 -11.1 0
-13.5 -10.8 0
-13.5 -10.5 0
-13.5 -10.2 0
-13.5 -9.9 0
-13.5 -9.6 0
-13.5 -9.3 0
-13.5 -9 0
-13.5 -8.7 0
-13.5 -8.4 0
-13.5 -8.1 0
-13.5 -7.8 0
-13.5 -7.5 0
-13.5 -7.2 0
-13.5 -6.9 0
-13.5 -6.6 0
-13.5 -6.3 0
-13.5 -6 0
-13.5 -5.7 0
-13.5 -5.4 0
-13.5 -5.1 0
-13.5 -4.8 0
-13.5 -4.5 0
-13.5 -4.2 0
-13.5 -3.9 0
-13.5 -3.6 0
-13.5 -3.3 0
-13.5 -3 0
-13.5 -2.7 0
-13.5 -2.4 0
-13.5 -2.1 0
-13.5 -1.8 0
-13.5 -1.5 0
-13.5 -1.2 0
-13.5 -0.9 0
-13.5 -0.6 0
-13.5 -0.3 0
-13.5 0 0
-13.5 0.3 0
-13.5 0.6 0
-13.5 0.9 0
-13.5 1.2 0
-13.5 1.5 0
-13.5 1.8 0
-13.5 2.1 0
-13.5 2.4 0
-13.5 2.7 0
-13.5 3 0
-13.5 3.3 0
-13.5 3.6 0
-13.5 3.9 0
-13.5 4.2 0
-13.5 4.5 0
-13.5 4.8 0
-13.5 5.1 0
-13.5 5.4 0
-13.5 5.7 0
-13.5 6 0
-13.5 6.3 0
-13.5 6.6 0
-13.5 6.9 0
-13.5 7.2 0
-13.5 7.5 0
-13.5 7.8 0
-13.5 8.1 0
-13.5 8.4 0
-13.5 8.7 0
-13.5 9 0
-13.5 9.3 0
-13.5 9.6 0
-13.5 9.9 0
-13.5 10.2 0
-13.5 10.5 0
-13.5 10.8 0
-13.5 11.1 0
-13.5 11.4 0
-13.5 11.7 0
-13.5 12 0
-13.5 12.3 0
-13.5 12.6 0
-13.5 12.9 0
-13.5 13.2 0
-13.5 13.5 0
-13.5 13.8 0
-13.5 14.1 0
-13.5 14.4 0
-13.5 14.7 0
-13.5 15 0
-13.2 -15 0
-13.2 -14.7 0
-13.2 -14.4 0
-13.2 -14.1 0
-13.2 -13.8 0
-13.2 -13.5 0
-13.2 -13.2 0
-13.2 -12.9 0
-13.2 -12.6 0
-13.2 -12.3 0
-13.2 -12 0
-13.2 -11.7 0
-13.2 -11.4 0
-13.2 -11.1 0
-13.2 -10.8 0
-13.2 -10.5 0
-13.2 -10.2 0
-13.2 -9.9 0
-13.2 -9.6 0
-13.2 -9.3 0
-13.2 -9 0
-13.2 -8.7 0
-13.2 -8.4 0
-13.2 -8.1 0
-13.2 -7.8 0
-13.2 -7.5 0
-13.2 -7.2 0
-13.2 -6.9 0
-13.2 -6.6 0
-13.2 -6.3 0
-13.2 -6 0
-13.2 -5.7 0
-13.2 -5.4 0
-13.2 -5.1 0
-13.2 -4.8 0
-13.2 -4.5 0
-13.2 -4.2 0
-13.2 -3.9 0
-13.2 -3.6 0
-13.2 -3.3 0
-13.2 -3 0
-13.2 -2.7 0
-13.2 -2.4 0
-13.2 -2.1 0
-13.2 -1.8 0
-13.2 -1.5 0
-13.2 -1.2 0
-13.2 -0.9 0
-13.2 -0.6 0
-13.2 -0.3 0
-13.2 0 0
-13.2 0.3 0
-13.2 0.6 0
-13.2 0.9 0
-13.2 1.2 0
-13.2 1.5 0
-13.2 1.8 0
-13.2 2.1 0
-13.2 2.4 0
-13.2 2.7 0
-13.2 3 0
-13.2 3.3 0
-13.2 3.6 0
-13.2 3.9 0
-13.2 4.2 0
-13.2 4.5 0
-13.2 4.8 0
-13.2 5.1 0
-13.2 5.4 0
-13.2 5.7 0
-13.2 6 0
-13.2 6.3 0
-13.2 6.6 0
-13.2 6.9 0
-13.2 7.2 0
-13.2 7.5 0
-13.2 7.8 0
-13.2 8.1 0
-13.2 8.4 0
-13.2 8.7 0
-13.2 9 0
-13.2 9.3 0
-13.2 9.6 0
-13.2 9.9 0
-13.2 10.2 0
-13.2 10.5 0
-13.2 10.8 0
-13.2 11.1 0
-13.2 11.4 0
-13.2 11.7 0
-13.2 12 0
-13.2 12.3 0
-13.2 12.6 0
-13.2 12.9 0
-13.2 13.2 0
-13.2 13.5 0
-13.2 13.8 0
-13.2 14.1 0
-13.2 14.4 0
-13.2 14.7 0
-13.2 15 0
-12.9 -15 0
-12.9 -14.7 0
-12.9 -14.4 0
-12.9 -14.1 0
-12.9 -13.8 0
-12.9 -13.5 0
-12.9 -13.2 0
-12.9 -12.9 0
-12.9 -12.6 0
-12.9 -12.3 0
-12.9 -12 0
-12.9 -11.7 0
-12.9 -11.4 0
-12.9 -11.1 0
-12.9 -10.8 0
-12.9 -10.5 0
-12.9 -10.2 0
-12.9 -9.9 0
-12.9 -9.6 0
-12.9 -9.3 0
-12.9 -9 0
-12.9 -8.7 0
-12.9 -8.4 0
-12.9 -8.1 0
-12.9 -7.8 0
-12.9 -7.5 0
-12.9 -7.2 0
-12.9 -6.9 0
-12.9 -6.6 0
-12.9 -6.3 0
-12.9 -6 0
-12.9 -5.7 0
-12.9 -5.4 0
-12.9 -5.1 0
-12.9 -4.8 0
-12.9 -4.5 0
-12.9 -4.2 0
-12.9 -3.9 0
-12.9 -3.6 0
-12.9 -3.3 0
-12.9 -3 0
-12.9 -2.7 0
-12.9 -2.4 0
-12.9 -2.1 0
-12.9 -1.8 0
-12.9 -1.5 0
-12.9 -1.2 0
-12.9 -0.9 0
-12.9 -0.6 0
-12.9 -0.3 0
-12.9 0 0
-12.9 0.3 0
-12.9 0.6 0
-12.9 0.9 0
-12.9 1.2 0
-12.9 1.5 0
-12.9 1.8 0
-12.9 2.1 0
-12.9 2.4 0
-12.9 2.7 0
-12.9 3 0
-12.9 3.3 0
-12.9 3.6 0
-12.9 3.9 0
-12.9 4.2 0
-12.9 4.5 0
-12.9 4.8 0
-12.9 5.1 0
-12.9 5.4 0
-12.9 5.7 0
-12.9 6 0
-12.9 6.3 0
-12.9 6.6 0
-12.9 6.9 0
-12.9 7.2 0
-12.9 7.5 0
-12.9 7.8 0
-12.9 8.1 0
-12.9 8.4 0
-12.9 8.7 0
-12.9 9 0
[...]
            <PointData>
                <DataArray type="Float64" Name="c1" format="ascii">
0.00318678 0.00319006 0.00319989 0.00321627 0.00323918 0.00326862 0.00330455 0.00334696 0.00339582 0.00345107 0.00351269 0.00358061 0.00365476 0.00373507 0.00382145 0.00391379 0.00401197 0.00411585 0.00422528 0.00434007 0.00446002 0.0045849 0.00471444 0.00484836 0.00498634 0.00512801 0.00527298 0.00542082 0.00557105 0.00572316 0.00587658 0.00603073 0.00618495 0.00633856 0.00649086 0.00664108 0.00678844 0.00693215 0.00707139 0.00720532 0.00733313 0.00745399 0.00756713 0.00767176 0.00776717 0.00785268 0.00792768 0.00799164 0.00804408 0.00808462 0.008113 0.00812901 0.00813258 0.00812372 0.00810256 0.0080693 0.00802427 0.00796787 0.00790058 0.00782295 0.00773562 0.00763925 0.00753456 0.00742233 0.00730334 0.00717838 0.00704827 0.00691382 0.00677583 0.00663509 0.00649236 0.0063484 0.0062039 0.00605954 0.00591598 0.00577382 0.00563362 0.00549592 0.00536121 0.00522994 0.00510254 0.0049794 0.00486086 0.00474724 0.00463884 0.00453592 0.00443871 0.00434742 0.00426224 0.00418334 0.00411086 0.00404493 0.00398567 0.00393317 0.00388752 0.00384877 0.003817 0.00379224 0.00377453 0.00376389 0.00376035 
0.00318851 0.0031918 0.00320164 0.00321805 0.003241 0.00327049 0.00330649 0.00334898 0.00339792 0.00345328 0.00351502 0.00358307 0.00365737 0.00373784 0.0038244 0.00391694 0.00401534 0.00411946 0.00422914 0.00434421 0.00446445 0.00458965 0.00471954 0.00485383 0.00499219 0.00513428 0.0052797 0.00542801 0.00557874 0.00573136 0.00588534 0.00604005 0.00619486 0.00634908 0.006502 0.00665286 0.00680086 0.00694522 0.0070851 0.00721966 0.00734809 0.00746955 0.00758325 0.00768842 0.00778432 0.00787028 0.00794568 0.00800997 0.00806268 0.00810343 0.00813194 0.00814802 0.00815157 0.00814263 0.00812131 0.00808784 0.00804252 0.00798577 0.00791808 0.00784 0.00775217 0.00765527 0.00755003 0.00743722 0.00731762 0.00719205 0.00706131 0.00692624 0.00678763 0.00664628 0.00650295 0.0063584 0.00621333 0.00606843 0.00592434 0.00578167 0.00564099 0.00550283 0.00536769 0.00523601 0.00510823 0.00498473 0.00486585 0.00475192 0.00464323 0.00454003 0.00444257 0.00435106 0.00426567 0.00418658 0.00411393 0.00404786 0.00398846 0.00393584 0.00389009 0.00385126 0.00381942 0.0037946 0.00377686 0.0037662 0.00376264 
0.00319369 0.00319699 0.00320689 0.00322338 0.00324646 0.0032761 0.0033123 0.00335502 0.00340423 0.00345991 0.003522 0.00359045 0.00366519 0.00374616 0.00383325 0.00392639 0.00402543 0.00413026 0.00424071 0.0043566 0.00447774 0.0046039 0.00473482 0.00487021 0.00500976 0.0051531 0.00529985 0.00544958 0.00560179 0.00575599 0.0059116 0.00606802 0.0062246 0.00638066 0.00653545 0.00668822 0.00683816 0.00698446 0.00712628 0.00726275 0.00739305 0.00751631 0.00763173 0.00773851 0.0078359 0.00792321 0.0079998 0.0080651 0.00811863 0.00816 0.00818891 0.00820517 0.00820869 0.0081995 0.00817771 0.00814357 0.00809739 0.00803959 0.00797069 0.00789126 0.00780194 0.00770344 0.00759651 0.00748194 0.00736052 0.00723309 0.00710049 0.00696354 0.00682307 0.00667987 0.00653474 0.00638843 0.00624165 0.0060951 0.00594942 0.00580523 0.0056631 0.00552357 0.00538712 0.00525422 0.00512528 0.00500069 0.0048808 0.00476593 0.00465636 0.00455236 0.00445416 0.00436196 0.00427595 0.0041963 0.00412314 0.00405661 0.00399681 0.00394385 0.00389779 0.00385871 0.00382666 0.00380169 0.00378383 0.0037731 0.00376953 
0.00320229 0.00320562 0.00321561 0.00323224 0.00325552 0.00328543 0.00332195 0.00336506 0.00341473 0.00347092 0.0035336 0.00360271 0.00367819 0.00375998 0.00384798 0.0039421 0.00404222 0.00414822 0.00425995 0.00437722 0.00449985 0.00462761 0.00476025 0.00489748 0.005039 0.00518444 0.00533342 0.0054855 0.00564021 0.00579702 0.00595537 0.00611465 0.00627421 0.00643333 0.00659127 0.00674725 0.00690044 0.00705001 0.00719508 0.00733477 0.0074682 0.0075945 0.00771281 0.00782231 0.00792222 0.0080118 0.00809039 0.0081574 0.00821231 0.00825472 0.00828431 0.00830089 0.00830435 0.00829473 0.00827216 0.00823687 0.00818923 0.00812968 0.00805873 0.00797701 0.00788519 0.007784 0.00767423 0.00755668 0.00743221 0.00730167 0.00716592 0.00702582 0.00688222 0.00673594 0.00658778 0.00643851 0.00628887 0.00613955 0.00599122 0.00584449 0.00569994 0.0055581 0.00541948 0.00528453 0.00515366 0.00502727 0.00490569 0.00478925 0.00467822 0.00457287 0.00447343 0.00438009 0.00429305 0.00421245 0.00413845 0.00407117 0.0040107 0.00395715 0.00391059 0.00387109 0.0038387 0.00381347 0.00379542 0.00378458 0.00378097 
0.00321428 0.00321765 0.00322776 0.0032446 0.00326816 0.00329843 0.00333541 0.00337906 0.00342936 0.00348628 0.00354978 0.00361981 0.00369633 0.00377926 0.00386852 0.00396402 0.00406565 0.00417329 0.0042868 0.00440601 0.00453072 0.00466073 0.00479578 0.00493559 0.00507987 0.00522825 0.00538036 0.00553575 0.00569395 0.00585445 0.00601667 0.00617998 0.00634372 0.00650717 0.00666956 0.00683008 0.00698789 0.00714208 0.00729177 0.00743602 0.00757391 0.00770452 0.00782695 0.00794032 0.0080438 0.00813662 0.00821807 0.00828751 0.0083444 0.0083883 0.00841886 0.00843588 0.00843926 0.00842902 0.00840531 0.00836841 0.00831868 0.0082566 0.00818275 0.00809777 0.00800238 0.00789737 0.00778355 0.00766179 0.00753298 0.00739802 0.00725781 0.00711325 0.00696522 0.00681457 0.00666213 0.0065087 0.00635502 0.00620181 0.00604974 0.00589943 0.00575148 0.00560642 0.00546474 0.00532691 0.00519333 0.0050644 0.00494046 0.00482182 0.00470875 0.00460151 0.00450033 0.0044054 0.00431691 0.004235 0.00415981 0.00409147 0.00403007 0.00397571 0.00392845 0.00388836 0.0038555 0.00382989 0.00381158 0.00380059 0.00379692 
0.00322961 0.00323303 0.00324329 0.00326039 0.00328432 0.00331506 0.00335261 0.00339696 0.00344807 0.00350592 0.00357047 0.0036417 0.00371953 0.00380393 0.0038948 0.00399208 0.00409565 0.0042054 0.0043212 0.00444289 0.00457028 0.00470317 0.00484132 0.00498446 0.00513229 0.00528447 0.00544061 0.00560028 0.005763 0.00592827 0.00609548 0.00626403 0.00643321 0.00660229 0.00677047 0.00693692 0.00710073 0.00726098 0.00741671 0.00756693 0.00771067 0.00784693 0.00797475 0.00809321 0.00820139 0.00829848 0.00838369 0.00845635 0.00851585 0.00856171 0.00859356 0.00861116 0.00861441 0.00860335 0.00857815 0.00853909 0.0084866 0.00842121 0.00834352 0.00825424 0.00815417 0.00804412 0.00792499 0.00779771 0.00766323 0.00752249 0.00737645 0.00722607 0.00707226 0.00691592 0.00675792 0.00659907 0.00644015 0.00628189 0.00612498 0.00597005 0.00581769 0.00566846 0.00552283 0.00538129 0.00524423 0.00511203 0.00498504 0.00486356 0.00474786 0.0046382 0.00453479 0.00443782 0.00434746 0.00426386 0.00418715 0.00411745 0.00405485 0.00399944 0.00395129 0.00391045 0.00387697 0.00385089 0.00383225 0.00382105 0.00381732 
0.00324821 0.00325169 0.00326214 0.00327955 0.00330392 0.00333524 0.0033735 0.00341869 0.00347078 0.00352977 0.00359561 0.00366827 0.00374772 0.0038339 0.00392675 0.00402618 0.00413212 0.00424444 0.00436304 0.00448775 0.00461842 0.00475483 0.00489678 0.00504399 0.00519618 0.005353 0.00551409 0.00567901 0.00584731 0.00601844 0.00619183 0.00636683 0.00654274 0.0067188 0.00689418 0.00706798 0.00723928 0.00740708 0.00757036 0.00772805 0.0078791 0.00802245 0.00815705 0.00828188 0.00839598 0.00849844 0.0085884 0.00866511 0.00872791 0.00877625 0.00880972 0.00882805 0.00883114 0.00881903 0.00879192 0.00875013 0.00869416 0.00862456 0.00854204 0.00844736 0.00834139 0.00822503 0.00809925 0.00796505 0.00782346 0.0076755 0.0075222 0.00736456 0.00720357 0.00704018 0.00687527 0.00670971 0.00654431 0.00637982 0.00621693 0.0060563 0.00589853 0.00574416 0.0055937 0.00544759 0.00530625 0.00517005 0.00503933 0.00491438 0.00479547 0.00468284 0.0045767 0.00447723 0.00438459 0.00429893 0.00422037 0.00414901 0.00408495 0.00402826 0.00397901 0.00393726 0.00390303 0.00387638 0.00385733 0.00384588 0.00384207 
0.00327 0.00327356 0.00328423 0.00330201 0.00332689 0.00335889 0.00339798 0.00344415 0.00349741 0.00355772 0.00362508 0.00369945 0.00378079 0.00386907 0.00396424 0.00406622 0.00417493 0.00429029 0.00441219 0.00454048 0.00467501 0.00481559 0.00496202 0.00511405 0.0052714 0.00543373 0.0056007 0.00577187 0.00594679 0.00612492 0.00630568 0.00648841 0.00667239 0.00685684 0.00704087 0.00722357 0.00740392 0.00758086 0.00775329 0.00792006 0.00808001 0.00823198 0.00837483 0.00850746 0.00862879 0.00873782 0.00883361 0.00891531 0.00898217 0.00903356 0.00906902 0.00908825 0.00909112 0.0090777 0.00904821 0.00900306 0.00894278 0.00886802 0.00877957 0.00867828 0.0085651 0.00844104 0.00830715 0.00816454 0.00801431 0.0078576 0.0076955 0.0075291 0.00735944 0.00718754 0.00701433 0.00684073 0.00666756 0.00649561 0.00632558 0.00615816 0.00599393 0.00583345 0.00567723 0.0055257 0.00537929 0.00523834 0.0051032 0.00497415 0.00485144 0.0047353 0.00462593 0.00452351 0.00442819 0.0043401 0.00425935 0.00418604 0.00412026 0.00406206 0.00401152 0.00396869 0.00393358 0.00390625 0.00388672 0.00387499 0.00387108 
0.00329488 0.00329853 0.00330945 0.00332765 0.00335313 0.0033859 0.00342594 0.00347326 0.00352784 0.00358968 0.00365877 0.00373509 0.00381861 0.00390931 0.00400713 0.00411204 0.00422396 0.00434281 0.0044685 0.0046009 0.00473989 0.00488528 0.00503689 0.00519448 0.00535779 0.00552652 0.0057003 0.00587873 0.00606135 0.00624764 0.006437 0.00662878 0.00682223 0.00701654 0.00721078 0.00740398 0.00759505 0.00778285 0.00796617 0.00814375 0.00831432 0.00847659 0.00862932 0.00877127 0.00890128 0.00901822 0.00912104 0.00920878 0.00928056 0.00933566 0.00937354 0.00939383 0.00939641 0.00938136 0.00934898 0.00929972 0.00923422 0.00915324 0.00905764 0.0089484 0.00882657 0.00869328 0.0085497 0.00839704 0.00823653 0.00806941 0.00789686 0.00772008 0.00754018 0.00735825 0.00717528 0.00699222 0.00680994 0.00662926 0.0064509 0.00627555 0.0061038 0.00593622 0.00577331 0.0056155 0.0054632 0.00531677 0.00517651 0.00504271 0.00491561 0.00479543 0.00468235 0.00457653 0.00447811 0.00438722 0.00430395 0.0042284 0.00416063 0.00410071 0.00404869 0.0040046 0.0039685 0.00394039 0.00392029 0.00390823 0.00390421 
0.00332275 0.00332649 0.0033377 0.00335637 0.00338253 0.00341616 0.00345727 0.00350587 0.00356195 0.00362551 0.00369655 0.00377507 0.00386104 0.00395446 0.00405529 0.00416349 0.00427902 0.00440182 0.00453179 0.00466885 0.00481287 0.00496371 0.00512119 0.0052851 0.00545519 0.00563117 0.00581271 0.00599942 0.00619085 0.00638649 0.00658574 0.00678793 0.00699231 0.00719803 0.00740413 0.00760956 0.00781316 0.00801367 0.00820978 0.00840007 0.00858314 0.00875756 0.00892193 0.0090749 0.00921519 0.00934153 0.00945275 0.00954771 0.00962542 0.00968499 0.00972576 0.00974732 0.00974951 0.00973246 0.00969655 0.00964234 0.00957058 0.00948215 0.00937805 0.00925937 0.00912731 0.0089831 0.00882808 0.00866359 0.00849099 0.00831164 0.00812687 0.00793797 0.00774615 0.00755256 0.00735827 0.00716428 0.0069715 0.00678077 0.00659284 0.00640839 0.00622804 0.00605234 0.00588179 0.00571682 0.00555783 0.00540515 0.00525908 0.0051199 0.00498782 0.00486305 0.00474576 0.00463609 0.00453418 0.00444012 0.00435401 0.00427592 0.00420591 0.00414404 0.00409035 0.00404487 0.00400762 0.00397863 0.00395791 0.00394548 0.00394134 
0.00335348 0.00335732 0.00336884 0.00338805 0.00341495 0.00344954 0.00349184 0.00354185 0.00359959 0.00366506 0.00373827 0.00381922 0.00390792 0.00400436 0.00410852 0.00422039 0.00433994 0.00446711 0.00460186 0.00474411 0.00489375 0.00505066 0.00521469 0.00538566 0.00556334 0.00574747 0.00593774 0.00613377 0.00633513 0.00654133 0.00675177 0.0069658 0.00718264 0.00740142 0.00762113 0.00784066 0.00805874 0.00827401 0.00848498 0.00869009 0.00888774 0.00907633 0.00925431 0.00942018 0.00957252 0.00970995 0.00983111 0.00993471 0.0100195 0.0100845 0.0101287 0.0101517 0.0101534 0.0101339 0.0100937 0.0100335 0.0099543 0.00985705 0.00974291 0.00961313 0.00946904 0.00931205 0.00914364 0.00896533 0.00877865 0.00858511 0.00838618 0.00818327 0.00797771 0.00777073 0.00756348 0.007357 0.00715226 0.0069501 0.0067513 0.00655656 0.00636649 0.00618164 0.00600249 0.00582947 0.00566296 0.00550328 0.00535071 0.00520549 0.00506785 0.00493796 0.00481597 0.00470201 0.0045962 0.00449861 0.00440934 0.00432842 0.00425593 0.00419189 0.00413634 0.0040893 0.00405079 0.00402083 0.00399942 0.00398657 0.00398229 
0.00338694 0.00339089 0.00340276 0.00342254 0.00345025 0.0034859 0.00352949 0.00358106 0.00364061 0.00370817 0.00378375 0.00386738 0.00395906 0.00405881 0.00416663 0.00428252 0.00440648 0.00453848 0.00467848 0.00482643 0.00498226 0.00514587 0.00531714 0.00549591 0.00568199 0.00587515 0.0060751 0.0062815 0.00649394 0.00671195 0.00693496 0.0071623 0.00739321 0.00762678 0.00786198 0.00809761 0.00833231 0.00856458 0.00879273 0.009015 0.00922955 0.00943457 0.00962833 0.00980917 0.00997556 0.010126 0.0102589 0.0103728 0.0104661 0.0105376 0.010586 0.0106107 0.0106117 0.0105891 0.0105436 0.0104763 0.0103882 0.0102806 0.0101547 0.0100119 0.00985377 0.0096819 0.00949793 0.0093036 0.00910062 0.0088907 0.00867548 0.00845651 0.00823524 0.00801302 0.00779105 0.00757045 0.0073522 0.00713718 0.00692619 0.00671992 0.00651898 0.00632391 0.00613519 0.00595322 0.00577836 0.00561091 0.00545113 0.00529926 0.00515546 0.00501992 0.00489275 0.00477406 0.00466395 0.00456249 0.00446972 0.00438571 0.00431048 0.00424406 0.00418647 0.00413772 0.00409783 0.00406679 0.00404462 0.00403132 0.00402688 
0.00342296 0.00342704 0.00343928 0.00345969 0.00348828 0.00352506 0.00357007 0.00362331 0.00368483 0.00375466 0.00383281 0.00391933 0.00401425 0.00411759 0.00422939 0.00434966 0.00447841 0.00461565 0.00476136 0.00491553 0.00507811 0.00524904 0.00542822 0.00561553 0.00581083 0.0060139 0.0062245 0.00644233 0.00666701 0.0068981 0.00713505 0.00737724 0.00762389 0.0078741 0.00812679 0.00838071 0.00863439 0.00888614 0.00913407 0.00937614 0.00961021 0.00983418 0.0100461 0.0102442 0.0104268 0.0105924 0.0107392 0.0108654 0.0109691 0.0110484 0.0111019 0.0111287 0.0111285 0.011102 0.0110502 0.0109743 0.0108756 0.0107558 0.0106161 0.0104582 0.0102838 0.0100947 0.0098927 0.00967984 0.00945808 0.00922935 0.00899549 0.00875822 0.00851913 0.00827966 0.00804111 0.00780464 0.00757126 0.0073419 0.00711733 0.00689825 0.00668527 0.00647892 0.00627963 0.0060878 0.00590375 0.00572777 0.00556009 0.00540091 0.00525039 0.00510866 0.00497583 0.00485198 0.00473719 0.00463149 0.00453494 0.00444755 0.00436934 0.00430033 0.00424052 0.00418992 0.00414852 0.00411632 0.00409332 0.00407952 0.00407493 
0.00346139 0.00346561 0.00347825 0.00349932 0.00352886 0.00356686 0.00361338 0.00366843 0.00373206 0.00380432 0.00388524 0.00397487 0.00407327 0.00418048 0.00429656 0.00442153 0.00455545 0.00469834 0.00485023 0.00501111 0.00518099 0.00535983 0.00554758 0.00574417 0.00594947 0.00616333 0.00638555 0.00661586 0.00685396 0.00709942 0.00735175 0.00761036 0.00787449 0.00814327 0.00841559 0.00869016 0.0089654 0.00923943 0.0095101 0.00977499 0.0100315 0.0102773 0.01051 0.0107278 0.0109291 0.0111122 0.0112754 0.0114165 0.0115328 0.011622 0.0116817 0.0117108 0.011709 0.0116774 0.0116176 0.0115313 0.0114202 0.011286 0.0111304 0.010955 0.0107618 0.0105527 0.0103299 0.0100957 0.00985236 0.00960209 0.00934697 0.00908894 0.00882971 0.00857085 0.00831372 0.00805954 0.00780935 0.00756408 0.0073245 0.00709132 0.0068651 0.00664635 0.00643549 0.00623288 0.00603881 0.00585354 0.00567726 0.00551014 0.00535232 0.00520388 0.00506493 0.0049355 0.00481564 0.00470537 0.00460472 0.00451369 0.00443228 0.00436047 0.00429827 0.00424567 0.00420264 0.00416919 0.00414531 0.00413098 0.0041262 
0.00350206 0.00350641 0.00351948 0.00354127 0.0035718 0.00361111 0.00365924 0.00371621 0.0037821 0.00385694 0.00394081 0.00403376 0.00413587 0.00424722 0.00436786 0.00449786 0.00463731 0.00478625 0.00494474 0.00511282 0.00529053 0.00547787 0.00567484 0.00588141 0.0060975 0.00632302 0.00655781 0.00680167 0.00705434 0.00731547 0.00758463 0.00786126 0.00814469 0.00843404 0.00872827 0.00902602 0.00932565 0.00962511 0.0099219 0.0102131 0.0104956 0.0107663 0.0110226 0.0112626 0.0114851 0.0116886 0.0118712 0.0120303 0.0121626 0.0122643 0.0123319 0.0123634 0.012359 0.0123206 0.0122507 0.0121518 0.012026 0.0118752 0.0117011 0.0115056 0.0112907 0.0110585 0.0108117 0.010553 0.0102848 0.0100099 0.00973067 0.00944915 0.00916727 0.0088867 0.00860888 0.00833505 0.00806628 0.00780348 0.00754743 0.00729878 0.0070581 0.00682585 0.00660241 0.0063881 0.00618317 0.00598785 0.00580228 0.0056266 0.00546091 0.00530526 0.00515971 0.00502429 0.00489899 0.00478383 0.00467879 0.00458386 0.00449901 0.00442422 0.00435946 0.00430472 0.00425997 0.00422518 0.00420034 0.00418544 0.00418048 
0.00354476 0.00354926 0.00356278 0.00358533 0.00361692 0.00365761 0.00370743 0.00376644 0.0038347 0.00391229 0.00399928 0.00409575 0.0042018 0.00431751 0.004443 0.00457834 0.00472365 0.00487902 0.00504454 0.00522028 0.00540633 0.00560274 0.00580956 0.00602679 0.00625444 0.00649246 0.00674076 0.00699922 0.00726763 0.00754573 0.00783315 0.00812944 0.00843398 0.00874598 0.00906446 0.00938809 0.00971521 0.0100436 0.0103705 0.0106924 0.011005 0.0113041 0.0115867 0.0118514 0.0120977 0.0123245 0.0125301 0.0127115 0.0128643 0.0129827 0.0130604 0.0130946 0.0130857 0.0130377 0.0129548 0.0128406 0.0126975 0.0125276 0.0123324 0.0121138 0.0118739 0.0116152 0.0113407 0.0110535 0.010757 0.0104539 0.0101473 0.00983925 0.009532 0.00922724 0.00892648 0.00863096 0.00834176 0.00805977 0.00778573 0.00752026 0.00726388 0.007017 0.00677996 0.00655303 0.00633642 0.00613028 0.00593475 0.0057499 0.00557578 0.00541243 0.00525984 0.00511801 0.00498693 0.00486655 0.00475684 0.00465776 0.00456926 0.00449129 0.00442383 0.00436681 0.00432022 0.00428401 0.00425817 0.00424267 0.00423751 
0.0035893 0.00359397 0.00360795 0.00363129 0.003664 0.00370614 0.00375774 0.00381889 0.00388965 0.00397012 0.00406039 0.00416056 0.00427075 0.00439107 0.00452166 0.00466264 0.00481414 0.00497629 0.00514923 0.00533307 0.00552795 0.00573397 0.00595123 0.0061798 0.00641975 0.00667109 0.00693382 0.00720789 0.00749318 0.00778952 0.00809665 0.0084142 0.00874167 0.0090784 0.0094235 0.0097758 0.0101337 0.0104951 0.0108569 0.0112148 0.0115629 0.0118942 0.0122056 0.0124965 0.012769 0.0130222 0.0132552 0.0134645 0.0136446 0.0137864 0.0138779 0.0139145 0.0138972 0.013835 0.0137353 0.0136026 0.0134396 0.0132478 0.0130288 0.012784 0.0125156 0.0122262 0.0119196 0.0115996 0.0112702 0.0109351 0.0105973 0.0102595 0.00992395 0.00959236 0.00926628 0.00894695 0.00863542 0.00833252 0.00803895 0.00775527 0.00748194 0.00721931 0.00696765 0.00672719 0.00649806 0.00628039 0.00607422 0.0058796 0.00569652 0.00552497 0.00536491 0.0052163 0.00507908 0.00495318 0.00483853 0.00473506 0.00464271 0.0045614 0.00449107 0.00443166 0.00438313 0.00434543 0.00431852 0.00430239 0.00429701 
0.00363548 0.0036403 0.00365478 0.00367894 0.00371282 0.00375646 0.00380993 0.00387331 0.00394669 0.00403017 0.00412386 0.0042279 0.00434242 0.00446757 0.0046035 0.00475038 0.00490837 0.00507764 0.00525838 0.00545074 0.00565491 0.00587105 0.00609932 0.00633987 0.00659281 0.00685827 0.00713631 0.00742697 0.00773025 0.00804608 0.0083743 0.00871469 0.00906686 0.00943032 0.00980437 0.010188 0.0105801 0.0109787 0.0113812 0.0117828 0.012174 0.0125411 0.0128826 0.0131993 0.0135003 0.0137829 0.014048 0.0142925 0.0145103 0.0146882 0.0147988 0.0148372 0.0148026 0.0147186 0.0145972 0.0144427 0.0142571 0.0140412 0.0137957 0.0135215 0.0132204 0.0128956 0.0125514 0.0121932 0.0118259 0.0114541 0.0110812 0.0107101 0.010343 0.00998177 0.0096279 0.00928256 0.00894673 0.00862117 0.00830651 0.00800323 0.00771169 0.00743219 0.00716492 0.00691003 0.00666759 0.00643764 0.00622019 0.00601521 0.00582266 0.00564245 0.00547452 0.00531875 0.00517507 0.00504336 0.00492352 0.00481544 0.00471904 0.00463421 0.00456088 0.00449896 0.0044484 0.00440913 0.00438111 0.00436431 0.00435872 