<?xml version="1.0"?>
<VTKFile type="StructuredGrid" version="0.1">
    <StructuredGrid WholeExtent="0 100 0 100 0 0">
        <Piece Extent="0 100 0 100 0 0">
            <Points>
                <DataArray type="Float64" NumberOfComponents="3" format="ascii">
-15 -15 0
-15 -14.7 0
-15 -14.4 0
-15 -14.1 0
-15 -13.8 0
-15 -13.5 0
-15 -13.2 0
-15 -12.9 0
-15 -12.6 0
-15 -12.3 0
-15 -12 0
-15 -11.7 0
-15 -11.4 0
-15 -11.1 0
-15 -10.8 0
-15 -10.5 0
-15 -10.2 0
-15 -9.9 0
-15 -9.6 0
-15 -9.3 0
-15 -9 0
-15 -8.7 0
-15 -8.4 0
-15 -8.1 0
-15 -7.8 0
-15 -7.5 0
-15 -7.2 0
-15 -6.9 0
-15 -6.6 0
-15 -6.3 0
-15 -6 0
-15 -5.7 0
-15 -5.4 0
-15 -5.1 0
-15 -4.8 0
-15 -4.5 0
-15 -4.2 0
-15 -3.9 0
-15 -3.6 0
-15 -3.3 0
-15 -3 0
-15 -2.7 0
-15 -2.4 0
-15 -2.1 0
-15 -1.8 0
-15 -1.5 0
-15 -1.2 0
-15 -0.9 0
-15 -0.6 0
-15 -0.3 0
-15 0 0
-15 0.3 0
-15 0.6 0
-15 0.9 0
-15 1.2 0
-15 1.5 0
-15 1.8 0
-15 2.1 0
-15 2.4 0
-15 2.7 0
-15 3 0
-15 3.3 0
-15 3.6 0
-15 3.9 0
-15 4.2 0
-15 4.5 0
-15 4.8 0
-15 5.1 0
-15 5.4 0
-15 5.7 0
-15 6 0
-15 6.3 0
-15 6.6 0
-15 6.9 0
-15 7.2 0
-15 7.5 0
-15 7.8 0
-15 8.1 0
-15 8.4 0
-15 8.7 0
-15 9 0
-15 9.3 0
-15 9.6 0
-15 9.9 0
-15 10.2 0
-15 10.5 0
-15 10.8 0
-15 11.1 0
-15 11.4 0
-15 11.7 0
-15 12 0
-15 12.3 0
-15 12.6 0
-15 12.9 0
-15 13.2 0
-15 13.5 0
-15 13.8 0
-15 14.1 0
-15 14.4 0
-15 14.7 0
-15 15 0
-14.7 -15 0
-14.7 -14.7 0
-14.7 -14.4 0
-14.7 -14.1 0
-14.7 -13.8 0
-14.7 -13.5 0
-14.7 -13.2 0
-14.7 -12.9 0
-14.7 -12.6 0
-14.7 -12.3 0
-14.7 -12 0
-14.7 -11.7 0
-14.7 -11.4 0
-14.7 -11.1 0
-14.7 -10.8 0
-14.7 -10.5 0
-14.7 -10.2 0
-14.7 -9.9 0
-14.7 -9.6 0
-14.7 -9.3 0
-14.7 -9 0
-14.7 -8.7 0
-14.7 -8.4 0
-14.7 -8.1 0
-14.7 -7.8 0
-14.7 -7.5 0
-14.7 -7.2 0
-14.7 -6.9 0
-14.7 -6.6 0
-14.7 -6.3 0
-14.7 -6 0
-14.7 -5.7 0
-14.7 -5.4 0
-14.7 -5.1 0
-14.7 -4.8 0
-14.7 -4.5 0
-14.7 -4.2 0
-14.7 -3.9 0
-14.7 -3.6 0
-14.7 -3.3 0
-14.7 -3 0
-14.7 -2.7 0
-14.7 -2.4 0
-14.7 -2.1 0
-14.7 -1.8 0
-14.7 -1.5 0
-14.7 -1.2 0
-14.7 -0.9 0
-14.7 -0.6 0
-14.7 -0.3 0
-14.7 0 0
-14.7 0.3 0
-14.7 0.6 0
-14.7 0.9 0
-14.7 1.2 0
-14.7 1.5 0
-14.7 1.8 0
-14.7 2.1 0
-14.7 2.4 0
-14.7 2.7 0
-14.7 3 0
-14.7 3.3 0
-14.7 3.6 0
-14.7 3.9 0
-14.7 4.2 0
-14.7 4.5 0
-14.7 4.8 0
-14.7 5.1 0
-14.7 5.4 0
-14.7 5.7 0
-14.7 6 0
-14.7 6.3 0
-14.7 6.6 0
-14.7 6.9 0
-14.7 7.2 0
-14.7 7.5 0
-14.7 7.8 0
-14.7 8.1 0
-14.7 8.4 0
-14.7 8.7 0
-14.7 9 0
-14.7 9.3 0
-14.7 9.6 0
-14.7 9.9 0
-14.7 10.2 0
-14.7 10.5 0
-14.7 10.8 0
-14.7 11.1 0
-14.7 11.4 0
-14.7 11.7 0
-14.7 12 0
-14.7 12.3 0
-14.7 12.6 0
-14.7 12.9 0
-14.7 13.2 0
-14.7 13.5 0
-14.7 13.8 0
-14.7 14.1 0
-14.7 14.4 0
-14.7 14.7 0
-14.7 15 0
-14.4 -15 0
-14.4 -14.7 0
-14.4 -14.4 0
-14.4 -14.1 0
-14.4 -13.8 0
-14.4 -13.5 0
-14.4 -13.2 0
-14.4 -12.9 0
-14.4 -12.6 0
-14.4 -12.3 0
-14.4 -12 0
-14.4 -11.7 0
-14.4 -11.4 0
-14.4 -11.1 0
-14.4 -10.8 0
-14.4 -10.5 0
-14.4 -10.2 0
-14.4 -9.9 0
-14.4 -9.6 0
-14.4 -9.3 0
-14.4 -9 0
-14.4 -8.7 0
-14.4 -8.4 0
-14.4 -8.1 0
-14.4 -7.8 0
-14.4 -7.5 0
-14.4 -7.2 0
-14.4 -6.9 0
-14.4 -6.6 0
-14.4 -6.3 0
-14.4 -6 0
-14.4 -5.7 0
-14.4 -5.4 0
-14.4 -5.1 0
-14.4 -4.8 0
-14.4 -4.5 0
-14.4 -4.2 0
-14.4 -3.9 0
-14.4 -3.6 0
-14.4 -3.3 0
-14.4 -3 0
-14.4 -2.7 0
-14.4 -2.4 0
-14.4 -2.1 0
-14.4 -1.8 0
-14.4 -1.5 0
-14.4 -1.2 0
-14.4 -0.9 0
-14.4 -0.6 0
-14.4 -0.3 0
-14.4 0 0
-14.4 0.3 0
-14.4 0.6 0
-14.4 0.9 0
-14.4 1.2 0
-14.4 1.5 0
-14.4 1.8 0
-14.4 2.1 0
-14.4 2.4 0
-14.4 2.7 0
-14.4 3 0
-14.4 3.3 0
-14.4 3.6 0
-14.4 3.9 0
-14.4 4.2 0
-14.4 4.5 0
-14.4 4.8 0
-14.4 5.1 0
-14.4 5.4 0
-14.4 5.7 0
-14.4 6 0
-14.4 6.3 0
-14.4 6.6 0
-14.4 6.9 0
-14.4 7.2 0
-14.4 7.5 0
-14.4 7.8 0
-14.4 8.1 0
-14.4 8.4 0
-14.4 8.7 0
-14.4 9 0
-14.4 9.3 0
-14.4 9.6 0
-14.4 9.9 0
-14.4 10.2 0
-14.4 10.5 0
-14.4 10.8 0
-14.4 11.1 0
-14.4 11.4 0
-14.4 11.7 0
-14.4 12 0
-14.4 12.3 0
-14.4 12.6 0
-14.4 12.9 0
-14.4 13.2 0
-14.4 13.5 0
-14.4 13.8 0
-14.4 14.1 0
-14.4 14.4 0
-14.4 14.7 0
-14.4 15 0
-14.1 -15 0
-14.1 -14.7 0
-14.1 -14.4 0
-14.1 -14.1 0
-14.1 -13.8 0
-14.1 -13.5 0
-14.1 -13.2 0
-14.1 -12.9 0
-14.1 -12.6 0
-14.1 -12.3 0
-14.1 -12 0
-14.1 -11.7 0
-14.1 -11.4 0
-14.1 -11.1 0
-14.1 -10.8 0
-14.1 -10.5 0
-14.1 -10.2 0
-14.1 -9.9 0
-14.1 -9.6 0
-14.1 -9.3 0
-14.1 -9 0
-14.1 -8.7 0
-14.1 -8.4 0
-14.1 -8.1 0
-14.1 -7.8 0
-14.1 -7.5 0
-14.1 -7.2 0
-14.1 -6.9 0
-14.1 -6.6 0
-14.1 -6.3 0
-14.1 -6 0
-14.1 -5.7 0
-14.1 -5.4 0
-14.1 -5.1 0
-14.1 -4.8 0
-14.1 -4.5 0
-14.1 -4.2 0
-14.1 -3.9 0
-14.1 -3.6 0
-14.1 -3.3 0
-14.1 -3 0
-14.1 -2.7 0
-14.1 -2.4 0
-14.1 -2.1 0
-14.1 -1.8 0
-14.1 -1.5 0
-14.1 -1.2 0
-14.1 -0.9 0
-14.1 -0.6 0
-14.1 -0.3 0
-14.1 0 0
-14.1 0.3 0
-14.1 0.6 0
-14.1 0.9 0
-14.1 1.2 0
-14.1 1.5 0
-14.1 1.8 0
-14.1 2.1 0
-14.1 2.4 0
-14.1 2.7 0
-14.1 3 0
-14.1 3.3 0
-14.1 3.6 0
-14.1 3.9 0
-14.1 4.2 0
-14.1 4.5 0
-14.1 4.8 0
-14.1 5.1 0
-14.1 5.4 0
-14.1 5.7 0
-14.1 6 0
-14.1 6.3 0
-14.1 6.6 0
-14.1 6.9 0
-14.1 7.2 0
-14.1 7.5 0
-14.1 7.8 0
-14.1 8.1 0
-14.1 8.4 0
-14.1 8.7 0
-14.1 9 0
-14.1 9.3 0
-14.1 9.6 0
-14.1 9.9 0
-14.1 10.2 0
-14.1 10.5 0
-14.1 10.8 0
-14.1 11.1 0
-14.1 11.4 0
-14.1 11.7 0
-14.1 12 0
-14.1 12.3 0
-14.1 12.6 0
-14.1 12.9 0
-14.1 13.2 0
-14.1 13.5 0
-14.1 13.8 0
-14.1 14.1 0
-14.1 14.4 0
-14.1 14.7 0
-14.1 15 0
-13.8 -15 0
-13.8 -14.7 0
-13.8 -14.4 0
-13.8 -14.1 0
-13.8 -13.8 0
-13.8 -13.5 0
-13.8 -13.2 0
-13.8 -12.9 0
-13.8 -12.6 0
-13.8 -12.3 0
-13.8 -12 0
-13.8 -11.7 0
-13.8 -11.4 0
-13.8 -11.1 0
-13.8 -10.8 0
-13.8 -10.5 0
-13.8 -10.2 0
-13.8 -9.9 0
-13.8 -9.6 0
-13.8 -9.3 0
-13.8 -9 0
-13.8 -8.7 0
-13.8 -8.4 0
-13.8 -8.1 0
-13.8 -7.8 0
-13.8 -7.5 0
-13.8 -7.2 0
-13.8 -6.9 0
-13.8 -6.6 0
-13.8 -6.3 0
-13.8 -6 0
-13.8 -5.7 0
-13.8 -5.4 0
-13.8 -5.1 0
-13.8 -4.8 0
-13.8 -4.5 0
-13.8 -4.2 0
-13.8 -3.9 0
-13.8 -3.6 0
-13.8 -3.3 0
-13.8 -3 0
-13.8 -2.7 0
-13.8 -2.4 0
-13.8 -2.1 0
-13.8 -1.8 0
-13.8 -1.5 0
-13.8 -1.2 0
-13.8 -0.9 0
-13.8 -0.6 0
-13.8 -0.3 0
-13.8 0 0
-13.8 0.3 0
-13.8 0.6 0
-13.8 0.9 0
-13.8 1.2 0
-13.8 1.5 0
-13.8 1.8 0
-13.8 2.1 0
-13.8 2.4 0
-13.8 2.7 0
-13.8 3 0
-13.8 3.3 0
-13.8 3.6 0
-13.8 3.9 0
-13.8 4.2 0
-13.8 4.5 0
-13.8 4.8 0
-13.8 5.1 0
-13.8 5.4 0
-13.8 5.7 0
-13.8 6 0
-13.8 6.3 0
-13.8 6.6 0
-13.8 6.9 0
-13.8 7.2 0
-13.8 7.5 0
-13.8 7.8 0
-13.8 8.1 0
-13.8 8.4 0
-13.8 8.7 0
-13.8 9 0
-13.8 9.3 0
-13.8 9.6 0
-13.8 9.9 0
-13.8 10.2 0
-13.8 10.5 0
-13.8 10.8 0
-13.8 11.1 0
-13.8 11.4 0
-13.8 11.7 0
-13.8 12 0
-13.8 12.3 0
-13.8 12.6 0
-13.8 12.9 0
-13.8 13.2 0
-13.8 13.5 0
-13.8 13.8 0
-13.8 14.1 0
-13.8 14.4 0
-13.8 14.7 0
-13.8 15 0
-13.5 -15 0
-13.5 -14.7 0
-13.5 -14.4 0
-13.5 -14.1 0
-13.5 -13.8 0
-13.5 -13.5 0
-13.5 -13.2 0
-13.5 -12.9 0
-13.5 -12.6 0
-13.5 -12.3 0
-13.5 -12 0
-13.5 -11.7 0
-13.5 -11.4 0
-13.5 -11.1 0
-13.5 -10.8 0
-13.5 -10.5 0
-13.5 -10.2 0
-13.5 -9.9 0
-13.5 -9.6 0
-13.5 -9.3 0
-13.5 -9 0
-13.5 -8.7 0
-13.5 -8.4 0
-13.5 -8.1 0
-13.5 -7.8 0
-13.5 -7.5 0
-13.5 -7.2 0
-13.5 -6.9 0
-13.5 -6.6 0
-13.5 -6.3 0
-13.5 -6 0
-13.5 -5.7 0
-13.5 -5.4 0
-13.5 -5.1 0
-13.5 -4.8 0
-13.5 -4.5 0
-13.5 -4.2 0
-13.5 -3.9 0
-13.5 -3.6 0
-13.5 -3.3 0
-13.5 -3 0
-13.5 -2.7 0
-13.5 -2.4 0
-13.5 -2.1 0
-13.5 -1.8 0
-13.5 -1.5 0
-13.5 -1.2 0
-13.5 -0.9 0
-13.5 -0.6 0
-13.5 -0.3 0
-13.5 0 0
-13.5 0.3 0
-13.5 0.6 0
-13.5 0.9 0
-13.5 1.2 0
-13.5 1.5 0
-13.5 1.8 0
-13.5 2.1 0
-13.5 2.4 0
-13.5 2.7 0
-13.5 3 0
-13.5 3.3 0
-13.5 3.6 0
-13.5 3.9 0
-13.5 4.2 0
-13.5 4.5 0
-13.5 4.8 0
-13.5 5.1 0
-13.5 5.4 0
-13.5 5.7 0
-13.5 6 0
-13.5 6.3 0
-13.5 6.6 0
-13.5 6.9 0
-13.5 7.2 0
-13.5 7.5 0
-13.5 7.8 0
-13.5 8.1 0
-13.5 8.4 0
-13.5 8.7 0
-13.5 9 0
-13.5 9.3 0
-13.5 9.6 0
-13.5 9.9 0
-13.5 10.2 0
-13.5 10.5 0
-13.5 10.8 0
-13.5 11.1 0
-13.5 11.4 0
-13.5 11.7 0
-13.5 12 0
-13.5 12.3 0
-13.5 12.6 0
-13.5 12.9 0
-13.5 13.2 0
-13.5 13.5 0
-13.5 13.8 0
-13.5 14.1 0
-13.5 14.4 0
-13.5 14.7 0
-13.5 15 0
-13.2 -15 0
-13.2 -14.7 0
-13.2 -14.4 0
-13.2 -14.1 0
-13.2 -13.8 0
-13.2 -13.5 0
-13.2 -13.2 0
-13.2 -12.9 0
-13.2 -12.6 0
-13.2 -12.3 0
-13.2 -12 0
-13.2 -11.7 0
-13.2 -11.4 0
-13.2 -11.1 0
-13.2 -10.8 0
-13.2 -10.5 0
-13.2 -10.2 0
-13.2 -9.9 0
-13.2 -9.6 0
-13.2 -9.3 0
-13.2 -9 0
-13.2 -8.7 0
-13.2 -8.4 0
-13.2 -8.1 0
-13.2 -7.8 0
-13.2 -7.5 0
-13.2 -7.2 0
-13.2 -6.9 0
-13.2 -6.6 0
-13.2 -6.3 0
-13.2 -6 0
-13.2 -5.7 0
-13.2 -5.4 0
-13.2 -5.1 0
-13.2 -4.8 0
-13.2 -4.5 0
-13.2 -4.2 0
-13.2 -3.9 0
-13.2 -3.6 0
-13.2 -3.3 0
-13.2 -3 0
-13.2 -2.7 0
-13.2 -2.4 0
-13.2 -2.1 0
-13.2 -1.8 0
-13.2 -1.5 0
-13.2 -1.2 0
-13.2 -0.9 0
-13.2 -0.6 0
-13.2 -0.3 0
-13.2 0 0
-13.2 0.3 0
-13.2 0.6 0
-13.2 0.9 0
-13.2 1.2 0
-13.2 1.5 0
-13.2 1.8 0
-13.2 2.1 0
-13.2 2.4 0
-13.2 2.7 0
-13.2 3 0
-13.2 3.3 0
-13.2 3.6 0
-13.2 3.9 0
-13.2 4.2 0
-13.2 4.5 0
-13.2 4.8 0
-13.2 5.1 0
-13.2 5.4 0
-13.2 5.7 0
-13.2 6 0
-13.2 6.3 0
-13.2 6.6 0
-13.2 6.9 0
-13.2 7.2 0
-13.2 7.5 0
-13.2 7.8 0
-13.2 8.1 0
-13.2 8.4 0
-13.2 8.7 0
-13.2 9 0
-13.2 9.3 0
-13.2 9.6 0
-13.2 9.9 0
-13.2 10.2 0
-13.2 10.5 0
-13.2 10.8 0
-13.2 11.1 0
-13.2 11.4 0
-13.2 11.7 0
-13.2 12 0
-13.2 12.3 0
-13.2 12.6 0
-13.2 12.9 0
-13.2 13.2 0
-13.2 13.5 0
-13.2 13.8 0
-13.2 14.1 0
-13.2 14.4 0
-13.2 14.7 0
-13.2 15 0
-12.9 -15 0
-12.9 -14.7 0
-12.9 -14.4 0
-12.9 -14.1 0
-12.9 -13.8 0
-12.9 -13.5 0
-12.9 -13.2 0
-12.9 -12.9 0
-12.9 -12.6 0
-12.9 -12.3 0
-12.9 -12 0
-12.9 -11.7 0
-12.9 -11.4 0
-12.9 -11.1 0
-12.9 -10.8 0
-12.9 -10.5 0
-12.9 -10.2 0
-12.9 -9.9 0
-12.9 -9.6 0
-12.9 -9.3 0
-12.9 -9 0
-12.9 -8.7 0
-12.9 -8.4 0
-12.9 -8.1 0
-12.9 -7.8 0
-12.9 -7.5 0
-12.9 -7.2 0
-12.9 -6.9 0
-12.9 -6.6 0
-12.9 -6.3 0
-12.9 -6 0
-12.9 -5.7 0
-12.9 -5.4 0
-12.9 -5.1 0
-12.9 -4.8 0
-12.9 -4.5 0
-12.9 -4.2 0
-12.9 -3.9 0
-12.9 -3.6 0
-12.9 -3.3 0
-12.9 -3 0
-12.9 -2.7 0
-12.9 -2.4 0
-12.9 -2.1 0
-12.9 -1.8 0
-12.9 -1.5 0
-12.9 -1.2 0
-12.9 -0.9 0
-12.9 -0.6 0
-12.9 -0.3 0
-12.9 0 0
-12.9 0.3 0
-12.9 0.6 0
-12.9 0.9 0
-12.9 1.2 0
-12.9 1.5 0
-12.9 1.8 0
-12.9 2.1 0
-12.9 2.4 0
-12.9 2.7 0
-12.9 3 0
-12.9 3.3 0
-12.9 3.6 0
-12.9 3.9 0
-12.9 4.2 0
-12.9 4.5 0
-12.9 4.8 0
-12.9 5.1 0
-12.9 5.4 0
-12.9 5.7 0
-12.9 6 0
-12.9 6.3 0
-12.9 6.6 0
-12.9 6.9 0
-12.9 7.2 0
-12.9 7.5 0
-12.9 7.8 0
-12.9 8.1 0
-12.9 8.4 0
-12.9 8.7 0
-12.9 9 0
[...]
            <PointData>
                <DataArray type="Float64" Name="c1" format="ascii">
0.00158062 0.00158243 0.00158788 0.00159695 0.00160963 0.00162593 0.00164582 0.00166929 0.00169632 0.00172688 0.00176094 0.00179847 0.00183941 0.00188372 0.00193134 0.00198219 0.00203621 0.00209328 0.00215332 0.0022162 0.0022818 0.00234996 0.00242051 0.00249329 0.0025681 0.00264471 0.00272289 0.0028024 0.00288295 0.00296427 0.00304604 0.00312795 0.00320964 0.00329078 0.00337099 0.0034499 0.00352712 0.00360227 0.00367495 0.00374478 0.00381137 0.00387435 0.00393335 0.00398802 0.00403804 0.00408309 0.00412292 0.00415726 0.0041859 0.00420868 0.00422545 0.00423612 0.00424062 0.00423896 0.00423115 0.00421727 0.00419743 0.00417179 0.00414054 0.00410389 0.00406212 0.0040155 0.00396436 0.00390901 0.00384983 0.00378718 0.00372143 0.00365298 0.00358222 0.00350954 0.00343533 0.00335999 0.00328388 0.00320739 0.00313086 0.00305464 0.00297908 0.00290447 0.00283112 0.00275931 0.00268931 0.00262136 0.00255569 0.00249252 0.00243205 0.00237445 0.00231989 0.00226851 0.00222046 0.00217584 0.00213478 0.00209736 0.00206367 0.00203378 0.00200776 0.00198565 0.00196751 0.00195336 0.00194323 0.00193715 0.00193512 
0.00158196 0.00158378 0.00158924 0.00159833 0.00161105 0.00162739 0.00164733 0.00167086 0.00169796 0.0017286 0.00176276 0.00180038 0.00184144 0.00188588 0.00193363 0.00198463 0.00203881 0.00209605 0.00215628 0.00221936 0.00228516 0.00235354 0.00242433 0.00249736 0.00257242 0.00264931 0.00272778 0.00280758 0.00288844 0.00297007 0.00305216 0.0031344 0.00321643 0.00329791 0.00337846 0.00345771 0.00353527 0.00361076 0.00368377 0.00375392 0.00382083 0.0038841 0.00394338 0.00399831 0.00404857 0.00409384 0.00413385 0.00416836 0.00419714 0.00422002 0.00423686 0.00424756 0.00425208 0.00425039 0.00424252 0.00422855 0.00420859 0.0041828 0.00415137 0.00411453 0.00407253 0.00402566 0.00397425 0.00391862 0.00385914 0.00379617 0.00373011 0.00366133 0.00359024 0.00351722 0.00344269 0.00336701 0.00329058 0.00321376 0.00313691 0.00306039 0.00298452 0.00290962 0.00283599 0.00276391 0.00269365 0.00262546 0.00255956 0.00249618 0.0024355 0.0023777 0.00232296 0.00227142 0.00222321 0.00217845 0.00213726 0.00209973 0.00206594 0.00203596 0.00200985 0.00198768 0.00196948 0.00195529 0.00194514 0.00193904 0.001937 
0.00158599 0.00158782 0.00159332 0.00160248 0.0016153 0.00163176 0.00165186 0.00167557 0.00170289 0.00173377 0.0017682 0.00180613 0.00184753 0.00189234 0.0019405 0.00199195 0.0020466 0.00210437 0.00216514 0.00222881 0.00229525 0.00236429 0.00243579 0.00250957 0.00258541 0.00266311 0.00274243 0.00282312 0.0029049 0.00298748 0.00307054 0.00315377 0.00323681 0.00331931 0.00340089 0.00348117 0.00355976 0.00363626 0.00371027 0.00378139 0.00384923 0.00391339 0.00397351 0.00402923 0.00408021 0.00412614 0.00416673 0.00420172 0.00423091 0.0042541 0.00427116 0.00428198 0.00428651 0.00428474 0.0042767 0.00426246 0.00424214 0.0042159 0.00418393 0.00414647 0.00410379 0.00405618 0.00400396 0.00394747 0.00388709 0.0038232 0.00375617 0.00368641 0.00361432 0.00354031 0.00346477 0.00338809 0.00331067 0.00323288 0.00315509 0.00307763 0.00300086 0.00292509 0.00285062 0.00277773 0.0027067 0.00263777 0.00257118 0.00250713 0.00244584 0.00238746 0.00233218 0.00228013 0.00223146 0.00218629 0.00214471 0.00210683 0.00207273 0.00204248 0.00201614 0.00199377 0.00197541 0.0019611 0.00195085 0.0019447 0.00194265 
0.00159268 0.00159454 0.00160011 0.00160939 0.00162236 0.00163904 0.00165939 0.00168341 0.00171108 0.00174237 0.00177726 0.00181571 0.00185767 0.0019031 0.00195195 0.00200413 0.00205959 0.00211821 0.00217991 0.00224457 0.00231206 0.00238222 0.0024549 0.00252992 0.00260707 0.00268613 0.00276688 0.00284905 0.00293236 0.00301653 0.00310122 0.00318611 0.00327084 0.00335505 0.00343836 0.00352036 0.00360067 0.00367887 0.00375455 0.0038273 0.00389671 0.00396237 0.00402391 0.00408095 0.00413315 0.00418017 0.00422172 0.00425755 0.00428741 0.00431112 0.00432854 0.00433956 0.00434413 0.00434223 0.00433389 0.00431919 0.00429826 0.00427126 0.00423839 0.00419991 0.00415607 0.0041072 0.00405363 0.00399571 0.00393382 0.00386835 0.00379971 0.00372831 0.00365455 0.00357886 0.00350164 0.00342329 0.00334422 0.0032648 0.00318541 0.0031064 0.00302812 0.00295088 0.002875 0.00280077 0.00272845 0.00265829 0.00259053 0.00252539 0.00246306 0.00240371 0.00234753 0.00229465 0.00224521 0.00219932 0.0021571 0.00211865 0.00208403 0.00205333 0.0020266 0.00200391 0.00198528 0.00197075 0.00196036 0.00195412 0.00195204 
0.00160203 0.00160392 0.00160959 0.00161902 0.00163223 0.0016492 0.00166991 0.00169436 0.00172253 0.00175439 0.00178992 0.00182908 0.00187184 0.00191815 0.00196795 0.00202117 0.00207775 0.00213758 0.00220058 0.00226662 0.00233558 0.00240732 0.00248165 0.00255842 0.00263741 0.0027184 0.00280115 0.00288541 0.00297088 0.00305727 0.00314426 0.00323149 0.00331861 0.00340524 0.00349098 0.00357543 0.00365817 0.00373877 0.00381681 0.00389186 0.00396349 0.00403128 0.00409483 0.00415374 0.00420766 0.00425623 0.00429915 0.00433614 0.00436697 0.00439142 0.00440935 0.00442066 0.00442527 0.00442317 0.00441441 0.00439907 0.00437727 0.00434919 0.00431504 0.00427509 0.00422963 0.00417898 0.00412348 0.00406353 0.0039995 0.00393182 0.0038609 0.00378716 0.00371105 0.00363298 0.00355339 0.00347268 0.00339128 0.00330956 0.00322792 0.00314672 0.00306632 0.00298703 0.00290917 0.00283304 0.0027589 0.00268702 0.00261763 0.00255094 0.00248715 0.00242645 0.002369 0.00231494 0.00226442 0.00221755 0.00217443 0.00213516 0.00209982 0.00206849 0.00204122 0.00201806 0.00199905 0.00198424 0.00197364 0.00196727 0.00196515 
0.00161401 0.00161594 0.00162173 0.00163137 0.00164487 0.00166221 0.00168339 0.00170839 0.0017372 0.0017698 0.00180615 0.00184624 0.00189002 0.00193745 0.00198848 0.00204304 0.00210106 0.00216246 0.00222713 0.00229496 0.00236583 0.00243958 0.00251606 0.00259509 0.00267645 0.00275993 0.00284528 0.00293224 0.00302052 0.0031098 0.00319976 0.00329003 0.00338025 0.00347002 0.00355893 0.00364656 0.00373246 0.0038162 0.00389732 0.00397536 0.00404989 0.00412045 0.00418662 0.00424798 0.00430414 0.00435474 0.00439945 0.00443797 0.00447005 0.00449547 0.00451407 0.00452574 0.00453041 0.00452806 0.00451874 0.00450255 0.0044796 0.00445011 0.00441429 0.00437243 0.00432483 0.00427185 0.00421385 0.00415123 0.00408442 0.00401384 0.00393994 0.00386318 0.00378399 0.00370284 0.00362015 0.00353638 0.00345195 0.00336726 0.0032827 0.00319866 0.0031155 0.00303355 0.00295313 0.00287454 0.00279806 0.00272395 0.00265244 0.00258376 0.0025181 0.00245564 0.00239656 0.00234099 0.00228907 0.00224093 0.00219665 0.00215634 0.00212008 0.00208793 0.00205995 0.0020362 0.00201671 0.00200152 0.00199065 0.00198412 0.00198195 
0.00162858 0.00163056 0.0016365 0.0016464 0.00166025 0.00167806 0.0016998 0.00172547 0.00175507 0.00178856 0.00182593 0.00186714 0.00191218 0.00196099 0.00201352 0.00206972 0.00212951 0.00219282 0.00225954 0.00232957 0.00240278 0.00247902 0.00255813 0.00263994 0.00272422 0.00281077 0.00289932 0.00298962 0.00308135 0.0031742 0.00326783 0.00336187 0.00345593 0.00354959 0.00364243 0.00373399 0.00382383 0.00391145 0.0039964 0.00407817 0.00415631 0.00423032 0.00429975 0.00436416 0.00442312 0.00447626 0.00452319 0.00456362 0.00459726 0.00462389 0.00464332 0.00465544 0.00466017 0.00465751 0.00464749 0.00463022 0.00460585 0.00457458 0.00453667 0.00449242 0.00444216 0.00438626 0.00432513 0.0042592 0.00418891 0.00411473 0.00403714 0.0039566 0.0038736 0.00378861 0.00370211 0.00361454 0.00352636 0.00343798 0.00334982 0.00326228 0.00317571 0.00309048 0.0030069 0.00292529 0.00284593 0.00276907 0.00269497 0.00262384 0.00255588 0.00249127 0.00243018 0.00237276 0.00231913 0.00226942 0.00222373 0.00218214 0.00214474 0.00211159 0.00208276 0.00205828 0.0020382 0.00202255 0.00201136 0.00200463 0.00200239 
0.0016457 0.00164774 0.00165386 0.00166406 0.00167833 0.00169668 0.00171909 0.00174556 0.00177608 0.00181063 0.0018492 0.00189175 0.00193827 0.00198871 0.00204303 0.00210117 0.00216307 0.00222864 0.0022978 0.00237043 0.00244642 0.00252562 0.00260787 0.00269298 0.00278075 0.00287095 0.00296333 0.00305761 0.00315347 0.0032506 0.00334863 0.00344718 0.00354584 0.00364418 0.00374173 0.00383804 0.0039326 0.00402492 0.00411447 0.00420075 0.00428324 0.00436142 0.0044348 0.0045029 0.00456526 0.00462145 0.00467109 0.00471382 0.00474935 0.00477744 0.00479787 0.00481053 0.00481534 0.00481228 0.00480141 0.00478283 0.00475672 0.0047233 0.00468284 0.00463568 0.00458219 0.00452276 0.00445784 0.0043879 0.00431341 0.00423488 0.00415282 0.00406774 0.00398015 0.00389056 0.00379945 0.00370733 0.00361464 0.00352185 0.00342939 0.00333765 0.00324702 0.00315787 0.00307052 0.00298531 0.00290251 0.00282239 0.00274519 0.00267115 0.00260045 0.00253329 0.00246983 0.0024102 0.00235455 0.00230299 0.00225561 0.00221251 0.00217377 0.00213944 0.00210958 0.00208425 0.00206347 0.00204728 0.0020357 0.00202874 0.00202642 
0.00166532 0.00166743 0.00167376 0.0016843 0.00169906 0.00171803 0.00174122 0.00176861 0.0018002 0.00183597 0.00187592 0.00192002 0.00196825 0.00202058 0.00207696 0.00213735 0.00220168 0.00226988 0.00234186 0.00241752 0.00249674 0.00257938 0.00266527 0.00275424 0.00284607 0.00294053 0.00303737 0.0031363 0.003237 0.00333913 0.00344231 0.00354615 0.00365022 0.00375405 0.00385716 0.00395905 0.00405918 0.00415703 0.00425204 0.00434364 0.00443128 0.0045144 0.00459246 0.00466493 0.00473131 0.00479114 0.00484398 0.00488945 0.00492723 0.00495704 0.00497867 0.00499196 0.00499685 0.00499331 0.00498141 0.00496127 0.00493307 0.00489708 0.00485359 0.00480297 0.00474562 0.004682 0.00461259 0.00453788 0.00445842 0.00437475 0.00428741 0.00419697 0.00410396 0.00400894 0.00391243 0.00381495 0.00371698 0.00361902 0.0035215 0.00342485 0.00332947 0.00323574 0.00314401 0.00305459 0.00296779 0.00288387 0.00280309 0.00272566 0.00265179 0.00258166 0.00251544 0.00245327 0.00239527 0.00234156 0.00229224 0.00224739 0.00220709 0.0021714 0.00214037 0.00211404 0.00209245 0.00207563 0.00206361 0.00205638 0.00205398 
0.00168739 0.00168957 0.00169613 0.00170707 0.00172238 0.00174206 0.00176612 0.00179455 0.00182735 0.00186452 0.00190603 0.00195189 0.00200206 0.00205653 0.00211526 0.0021782 0.00224531 0.0023165 0.0023917 0.00247081 0.00255372 0.00264028 0.00273034 0.00282371 0.00292019 0.00301954 0.0031215 0.00322578 0.00333204 0.00343993 0.00354906 0.00365901 0.00376932 0.00387951 0.00398905 0.00409742 0.00420404 0.00430832 0.00440967 0.00450747 0.00460112 0.00469001 0.00477353 0.00485111 0.0049222 0.00498628 0.00504287 0.00509155 0.00513196 0.00516378 0.0051868 0.00520083 0.0052058 0.00520169 0.00518856 0.00516657 0.00513592 0.00509689 0.00504984 0.00499515 0.00493329 0.00486475 0.00479007 0.0047098 0.00462454 0.00453486 0.00444138 0.00434469 0.0042454 0.00414408 0.0040413 0.00393762 0.00383356 0.00372962 0.00362628 0.00352398 0.00342314 0.00332416 0.00322738 0.00313315 0.00304177 0.0029535 0.00286861 0.00278732 0.00270983 0.00263632 0.00256696 0.00250188 0.00244122 0.00238507 0.00233354 0.00228671 0.00224464 0.0022074 0.00217503 0.00214758 0.00212507 0.00210754 0.00209501 0.00208748 0.00208497 
0.00171183 0.0017141 0.00172092 0.0017323 0.00174822 0.0017687 0.00179373 0.00182333 0.00185748 0.0018962 0.00193947 0.00198729 0.00203964 0.00209651 0.00215786 0.00222367 0.00229388 0.00236844 0.00244726 0.00253025 0.00261731 0.00270829 0.00280305 0.00290141 0.00300315 0.00310803 0.0032158 0.00332614 0.00343872 0.00355317 0.00366908 0.00378599 0.00390344 0.0040209 0.00413782 0.00425361 0.00436767 0.00447935 0.00458801 0.00469296 0.00479355 0.0048891 0.00497894 0.00506244 0.00513898 0.00520799 0.00526893 0.00532133 0.00536478 0.00539894 0.00542355 0.00543842 0.00544347 0.00543868 0.00542412 0.00539996 0.00536644 0.00532388 0.00527266 0.00521324 0.00514614 0.00507189 0.0049911 0.0049044 0.00481242 0.00471581 0.00461525 0.00451139 0.00440487 0.00429632 0.00418637 0.0040756 0.00396458 0.00385382 0.00374385 0.00363513 0.00352809 0.00342314 0.00332066 0.00322098 0.00312442 0.00303125 0.00294173 0.00285608 0.00277451 0.00269721 0.00262431 0.00255598 0.00249232 0.00243344 0.00237943 0.00233037 0.00228632 0.00224734 0.00221348 0.00218477 0.00216124 0.00214292 0.00212982 0.00212195 0.00211933 
0.00173857 0.00174094 0.00174805 0.00175991 0.00177651 0.00179786 0.00182397 0.00185485 0.0018905 0.00193093 0.00197614 0.00202613 0.0020809 0.00214042 0.0022047 0.00227368 0.00234735 0.00242563 0.00250848 0.00259579 0.00268747 0.00278339 0.0028834 0.00298733 0.00309495 0.00320604 0.00332032 0.00343748 0.00355717 0.00367901 0.00380256 0.00392736 0.00405289 0.0041786 0.00430389 0.00442813 0.00455066 0.00467079 0.00478779 0.00490093 0.00500946 0.00511265 0.00520975 0.00530005 0.00538286 0.00545753 0.00552347 0.00558015 0.00562711 0.00566395 0.0056904 0.00570623 0.00571135 0.00570575 0.00568952 0.00566283 0.00562598 0.00557931 0.00552328 0.0054584 0.00538523 0.00530441 0.0052166 0.0051225 0.00502282 0.00491828 0.00480963 0.00469757 0.00458282 0.00446606 0.00434796 0.00422915 0.00411025 0.0039918 0.00387435 0.00375839 0.00364438 0.00353273 0.00342385 0.00331807 0.00321571 0.00311706 0.00302237 0.00293187 0.00284576 0.00276423 0.00268741 0.00261545 0.00254847 0.00248655 0.0024298 0.00237827 0.00233203 0.00229114 0.00225562 0.00222552 0.00220085 0.00218165 0.00216793 0.00215969 0.00215694 
0.00176754 0.00177001 0.00177744 0.00178982 0.00180716 0.00182947 0.00185676 0.00188904 0.00192633 0.00196864 0.00201597 0.00206834 0.00212575 0.00218819 0.00225567 0.00232815 0.00240561 0.002488 0.00257528 0.00266736 0.00276415 0.00286553 0.00297135 0.00308145 0.0031956 0.00331359 0.00343512 0.00355988 0.00368752 0.00381762 0.00394974 0.00408338 0.00421799 0.00435299 0.00448772 0.00462152 0.00475364 0.00488334 0.00500982 0.00513226 0.00524985 0.00536175 0.00546714 0.00556521 0.00565519 0.00573636 0.00580803 0.00586961 0.00592058 0.0059605 0.00598903 0.00600595 0.00601113 0.00600458 0.00598639 0.00595678 0.00591607 0.00586467 0.00580309 0.00573192 0.00565179 0.00556343 0.00546759 0.00536503 0.00525657 0.005143 0.00502515 0.0049038 0.00477973 0.00465369 0.00452641 0.00439856 0.00427079 0.00414371 0.00401789 0.00389384 0.00377205 0.00365295 0.00353694 0.00342438 0.00331559 0.00321087 0.00311046 0.0030146 0.00292349 0.00283728 0.00275614 0.0026802 0.00260955 0.00254431 0.00248454 0.0024303 0.00238166 0.00233866 0.00230133 0.00226971 0.0022438 0.00222364 0.00220923 0.00220058 0.00219769 
0.00179863 0.00180122 0.00180898 0.00182193 0.00184007 0.00186342 0.00189199 0.0019258 0.00196487 0.00200921 0.00205885 0.00211381 0.00217409 0.00223971 0.00231067 0.00238696 0.00246856 0.00255545 0.00264758 0.00274488 0.00284727 0.00295464 0.00306685 0.00318374 0.0033051 0.0034307 0.00356025 0.00369343 0.00382988 0.00396917 0.00411083 0.00425433 0.0043991 0.0045445 0.00468983 0.00483436 0.00497729 0.00511779 0.00525498 0.00538797 0.00551583 0.00563762 0.00575244 0.00585936 0.00595752 0.00604609 0.00612431 0.00619149 0.00624704 0.00629045 0.00632136 0.00633949 0.00634473 0.00633705 0.0063166 0.0062836 0.00623845 0.0061816 0.00611365 0.00603526 0.00594718 0.00585021 0.00574519 0.00563302 0.00551458 0.00539079 0.00526253 0.00513069 0.00499613 0.00485966 0.00472207 0.00458409 0.00444643 0.00430974 0.0041746 0.00404156 0.00391114 0.00378379 0.00365991 0.00353987 0.00342401 0.0033126 0.00320592 0.00310417 0.00300756 0.00291625 0.00283039 0.00275009 0.00267546 0.00260657 0.00254351 0.00248633 0.00243508 0.00238979 0.00235049 0.00231721 0.00228995 0.00226875 0.00225359 0.0022445 0.00224146 
0.00183174 0.00183445 0.00184259 0.00185615 0.00187515 0.00189962 0.00192957 0.00196502 0.002006 0.00205254 0.00210467 0.00216242 0.00222581 0.00229486 0.00236959 0.00245001 0.00253611 0.00262787 0.00272527 0.00282825 0.00293674 0.00305064 0.00316983 0.00329415 0.0034234 0.00355736 0.00369573 0.00383819 0.00398436 0.00413381 0.00428604 0.0044405 0.00459657 0.00475357 0.00491074 0.00506729 0.00522235 0.00537499 0.00552426 0.00566914 0.00580861 0.00594161 0.00606712 0.0061841 0.00629157 0.00638857 0.00647424 0.0065478 0.00660856 0.00665596 0.00668955 0.00670906 0.00671432 0.00670533 0.00668224 0.00664534 0.00659507 0.00653197 0.00645671 0.00637007 0.0062729 0.00616611 0.00605067 0.00592758 0.00579785 0.0056625 0.00552252 0.00537889 0.00523255 0.00508441 0.00493531 0.00478605 0.0046374 0.00449002 0.00434457 0.00420161 0.00406168 0.00392523 0.00379271 0.00366447 0.00354086 0.00342215 0.00330861 0.00320045 0.00309787 0.003001 0.00291 0.00282498 0.00274602 0.0026732 0.00260658 0.00254622 0.00249214 0.00244437 0.00240295 0.00236788 0.00233917 0.00231683 0.00230088 0.0022913 0.00228811 
0.00186677 0.00186961 0.00187813 0.00189235 0.00191228 0.00193794 0.00196936 0.00200657 0.0020496 0.0020985 0.0021533 0.00221405 0.00228077 0.00235351 0.0024323 0.00251716 0.0026081 0.00270512 0.00280821 0.00291733 0.00303243 0.00315343 0.0032802 0.00341261 0.00355047 0.00369354 0.00384156 0.0039942 0.00415106 0.00431169 0.00447559 0.00464216 0.00481075 0.00498064 0.005151 0.00532097 0.00548959 0.00565585 0.00581868 0.00597696 0.00612953 0.00627521 0.00641283 0.00654122 0.00665924 0.00676583 0.00685999 0.0069408 0.0070075 0.00705942 0.00709607 0.00711711 0.00712236 0.00711183 0.0070857 0.00704429 0.00698813 0.00691785 0.00683423 0.00673816 0.00663062 0.00651267 0.0063854 0.00624995 0.00610747 0.00595909 0.00580593 0.00564907 0.00548957 0.0053284 0.00516649 0.00500472 0.00484388 0.00468472 0.00452789 0.00437402 0.00422364 0.00407725 0.00393527 0.00379809 0.00366603 0.00353939 0.0034184 0.00330329 0.00319423 0.00309137 0.00299482 0.0029047 0.00282108 0.00274402 0.00267358 0.00260979 0.00255267 0.00250226 0.00245855 0.00242156 0.00239129 0.00236775 0.00235093 0.00234085 0.00233748 
0.00190359 0.00190657 0.00191551 0.00193042 0.00195133 0.00197826 0.00201125 0.00205033 0.00209555 0.00214695 0.0022046 0.00226854 0.00233883 0.00241551 0.00249864 0.00258826 0.00268439 0.00278706 0.00289626 0.003012 0.00313422 0.00326286 0.00339784 0.00353901 0.0036862 0.0038392 0.00399773 0.00416147 0.00433002 0.00450293 0.00467964 0.00485957 0.005042 0.00522615 0.00541116 0.00559606 0.00577982 0.00596132 0.00613937 0.0063127 0.00648003 0.00664003 0.00679135 0.00693267 0.00706268 0.00718017 0.00728397 0.00737305 0.00744649 0.00750356 0.00754367 0.00756642 0.00757163 0.00755929 0.00752962 0.00748303 0.00742009 0.00734158 0.00724838 0.00714155 0.0070222 0.00689155 0.00675087 0.00660144 0.00644457 0.00628154 0.0061136 0.00594195 0.00576776 0.0055921 0.00541599 0.00524036 0.00506608 0.00489393 0.00472463 0.00455879 0.004397 0.00423976 0.00408749 0.00394059 0.00379938 0.00366414 0.00353512 0.0034125 0.00329647 0.00318715 0.00308465 0.00298906 0.00290044 0.00281885 0.00274431 0.00267686 0.0026165 0.00256325 0.00251711 0.00247808 0.00244615 0.00242132 0.00240359 0.00239296 0.00238941 
0.00194207 0.00194519 0.00195457 0.00197023 0.00199217 0.00202045 0.00205509 0.00209615 0.00214368 0.00219775 0.00225841 0.00232575 0.00239982 0.00248069 0.00256844 0.00266313 0.0027648 0.00287349 0.00298924 0.00311206 0.00324192 0.00337879 0.00352259 0.00367321 0.00383049 0.00399423 0.00416418 0.00433999 0.00452129 0.0047076 0.00489837 0.00509295 0.00529062 0.00549054 0.00569177 0.00589327 0.00609389 0.00629241 0.0064875 0.00667775 0.0068617 0.00703785 0.00720466 0.00736062 0.00750425 0.00763411 0.00774889 0.00784738 0.00792852 0.00799143 0.00803546 0.00806014 0.00806524 0.00805079 0.00801703 0.00796444 0.00789372 0.00780575 0.00770159 0.00758245 0.00744965 0.00730458 0.0071487 0.00698348 0.0068104 0.0066309 0.00644641 0.00625825 0.0060677 0.00587596 0.00568413 0.00549321 0.00530414 0.00511775 0.00493478 0.00475589 0.00458168 0.00441264 0.00424922 0.00409181 0.00394072 0.00379622 0.00365855 0.00352788 0.00340437 0.00328814 0.00317928 0.00307785 0.0029839 0.00289747 0.00281858 0.00274723 0.00268343 0.00262718 0.00257845 0.00253725 0.00250356 0.00247737 0.00245867 0.00244745 0.00244371 