<?xml version="1.0"?>
<VTKFile type="StructuredGrid" version="0.1">
    <StructuredGrid WholeExtent="0 100 0 100 0 0">
        <Piece Extent="0 100 0 100 0 0">
            <Points>
                <DataArray type="Float64" NumberOfComponents="3" format="ascii">
-15 -15 0
-15 -14.7 0
-15 -14.4 0
-15 -14.1 0
-15 -13.8 0
-15 -13.5 0
-15 -13.2 0
-15 -12.9 0
-15 -12.6 0
-15 -12.3 0
-15 -12 0
-15 -11.7 0
-15 -11.4 0
-15 -11.1 0
-15 -10.8 0
-15 -10.5 0
-15 -10.2 0
-15 -9.9 0
-15 -9.6 0
-15 -9.3 0
-15 -9 0
-15 -8.7 0
-15 -8.4 0
-15 -8.1 0
-15 -7.8 0
-15 -7.5 0
-15 -7.2 0
-15 -6.9 0
-15 -6.6 0
-15 -6.3 0
-15 -6 0
-15 -5.7 0
-15 -5.4 0
-15 -5.1 0
-15 -4.8 0
-15 -4.5 0
-15 -4.2 0
-15 -3.9 0
-15 -3.6 0
-15 -3.3 0
-15 -3 0
-15 -2.7 0
-15 -2.4 0
-15 -2.1 0
-15 -1.8 0
-15 -1.5 0
-15 -1.2 0
-15 -0.9 0
-15 -0.6 0
-15 -0.3 0
-15 0 0
-15 0.3 0
-15 0.6 0
-15 0.9 0
-15 1.2 0
-15 1.5 0
-15 1.8 0
-15 2.1 0
-15 2.4 0
-15 2.7 0
-15 3 0
-15 3.3 0
-15 3.6 0
-15 3.9 0
-15 4.2 0
-15 4.5 0
-15 4.8 0
-15 5.1 0
-15 5.4 0
-15 5.7 0
-15 6 0
-15 6.3 0
-15 6.6 0
-15 6.9 0
-15 7.2 0
-15 7.5 0
-15 7.8 0
-15 8.1 0
-15 8.4 0
-15 8.7 0
-15 9 0
-15 9.3 0
-15 9.6 0
-15 9.9 0
-15 10.2 0
-15 10.5 0
-15 10.8 0
-15 11.1 0
-15 11.4 0
-15 11.7 0
-15 12 0
-15 12.3 0
-15 12.6 0
-15 12.9 0
-15 13.2 0
-15 13.5 0
-15 13.8 0
-15 14.1 0
-15 14.4 0
-15 14.7 0
-15 15 0
-14.7 -15 0
-14.7 -14.7 0
-14.7 -14.4 0
-14.7 -14.1 0
-14.7 -13.8 0
-14.7 -13.5 0
-14.7 -13.2 0
-14.7 -12.9 0
-14.7 -12.6 0
-14.7 -12.3 0
-14.7 -12 0
-14.7 -11.7 0
-14.7 -11.4 0
-14.7 -11.1 0
-14.7 -10.8 0
-14.7 -10.5 0
-14.7 -10.2 0
-14.7 -9.9 0
-14.7 -9.6 0
-14.7 -9.3 0
-14.7 -9 0
-14.7 -8.7 0
-14.7 -8.4 0
-14.7 -8.1 0
-14.7 -7.8 0
-14.7 -7.5 0
-14.7 -7.2 0
-14.7 -6.9 0
-14.7 -6.6 0
-14.7 -6.3 0
-14.7 -6 0
-14.7 -5.7 0
-14.7 -5.4 0
-14.7 -5.1 0
-14.7 -4.8 0
-14.7 -4.5 0
-14.7 -4.2 0
-14.7 -3.9 0
-14.7 -3.6 0
-14.7 -3.3 0
-14.7 -3 0
-14.7 -2.7 0
-14.7 -2.4 0
-14.7 -2.1 0
-14.7 -1.8 0
-14.7 -1.5 0
-14.7 -1.2 0
-14.7 -0.9 0
-14.7 -0.6 0
-14.7 -0.3 0
-14.7 0 0
-14.7 0.3 0
-14.7 0.6 0
-14.7 0.9 0
-14.7 1.2 0
-14.7 1.5 0
-14.7 1.8 0
-14.7 2.1 0
-14.7 2.4 0
-14.7 2.7 0
-14.7 3 0
-14.7 3.3 0
-14.7 3.6 0
-14.7 3.9 0
-14.7 4.2 0
-14.7 4.5 0
-14.7 4.8 0
-14.7 5.1 0
-14.7 5.4 0
-14.7 5.7 0
-14.7 6 0
-14.7 6.3 0
-14.7 6.6 0
-14.7 6.9 0
-14.7 7.2 0
-14.7 7.5 0
-14.7 7.8 0
-14.7 8.1 0
-14.7 8.4 0
-14.7 8.7 0
-14.7 9 0
-14.7 9.3 0
-14.7 9.6 0
-14.7 9.9 0
-14.7 10.2 0
-14.7 10.5 0
-14.7 10.8 0
-14.7 11.1 0
-14.7 11.4 0
-14.7 11.7 0
-14.7 12 0
-14.7 12.3 0
-14.7 12.6 0
-14.7 12.9 0
-14.7 13.2 0
-14.7 13.5 0
-14.7 13.8 0
-14.7 14.1 0
-14.7 14.4 0
-14.7 14.7 0
-14.7 15 0
-14.4 -15 0
-14.4 -14.7 0
-14.4 -14.4 0
-14.4 -14.1 0
-14.4 -13.8 0
-14.4 -13.5 0
-14.4 -13.2 0
-14.4 -12.9 0
-14.4 -12.6 0
-14.4 -12.3 0
-14.4 -12 0
-14.4 -11.7 0
-14.4 -11.4 0
-14.4 -11.1 0
-14.4 -10.8 0
-14.4 -10.5 0
-14.4 -10.2 0
-14.4 -9.9 0
-14.4 -9.6 0
-14.4 -9.3 0
-14.4 -9 0
-14.4 -8.7 0
-14.4 -8.4 0
-14.4 -8.1 0
-14.4 -7.8 0
-14.4 -7.5 0
-14.4 -7.2 0
-14.4 -6.9 0
-14.4 -6.6 0
-14.4 -6.3 0
-14.4 -6 0
-14.4 -5.7 0
-14.4 -5.4 0
-14.4 -5.1 0
-14.4 -4.8 0
-14.4 -4.5 0
-14.4 -4.2 0
-14.4 -3.9 0
-14.4 -3.6 0
-14.4 -3.3 0
-14.4 -3 0
-14.4 -2.7 0
-14.4 -2.4 0
-14.4 -2.1 0
-14.4 -1.8 0
-14.4 -1.5 0
-14.4 -1.2 0
-14.4 -0.9 0
-14.4 -0.6 0
-14.4 -0.3 0
-14.4 0 0
-14.4 0.3 0
-14.4 0.6 0
-14.4 0.9 0
-14.4 1.2 0
-14.4 1.5 0
-14.4 1.8 0
-14.4 2.1 0
-14.4 2.4 0
-14.4 2.7 0
-14.4 3 0
-14.4 3.3 0
-14.4 3.6 0
-14.4 3.9 0
-14.4 4.2 0
-14.4 4.5 0
-14.4 4.8 0
-14.4 5.1 0
-14.4 5.4 0
-14.4 5.7 0
-14.4 6 0
-14.4 6.3 0
-14.4 6.6 0
-14.4 6.9 0
-14.4 7.2 0
-14.4 7.5 0
-14.4 7.8 0
-14.4 8.1 0
-14.4 8.4 0
-14.4 8.7 0
-14.4 9 0
-14.4 9.3 0
-14.4 9.6 0
-14.4 9.9 0
-14.4 10.2 0
-14.4 10.5 0
-14.4 10.8 0
-14.4 11.1 0
-14.4 11.4 0
-14.4 11.7 0
-14.4 12 0
-14.4 12.3 0
-14.4 12.6 0
-14.4 12.9 0
-14.4 13.2 0
-14.4 13.5 0
-14.4 13.8 0
-14.4 14.1 0
-14.4 14.4 0
-14.4 14.7 0
-14.4 15 0
-14.1 -15 0
-14.1 -14.7 0
-14.1 -14.4 0
-14.1 -14.1 0
-14.1 -13.8 0
-14.1 -13.5 0
-14.1 -13.2 0
-14.1 -12.9 0
-14.1 -12.6 0
-14.1 -12.3 0
-14.1 -12 0
-14.1 -11.7 0
-14.1 -11.4 0
-14.1 -11.1 0
-14.1 -10.8 0
-14.1 -10.5 0
-14.1 -10.2 0
-14.1 -9.9 0
-14.1 -9.6 0
-14.1 -9.3 0
-14.1 -9 0
-14.1 -8.7 0
-14.1 -8.4 0
-14.1 -8.1 0
-14.1 -7.8 0
-14.1 -7.5 0
-14.1 -7.2 0
-14.1 -6.9 0
-14.1 -6.6 0
-14.1 -6.3 0
-14.1 -6 0
-14.1 -5.7 0
-14.1 -5.4 0
-14.1 -5.1 0
-14.1 -4.8 0
-14.1 -4.5 0
-14.1 -4.2 0
-14.1 -3.9 0
-14.1 -3.6 0
-14.1 -3.3 0
-14.1 -3 0
-14.1 -2.7 0
-14.1 -2.4 0
-14.1 -2.1 0
-14.1 -1.8 0
-14.1 -1.5 0
-14.1 -1.2 0
-14.1 -0.9 0
-14.1 -0.6 0
-14.1 -0.3 0
-14.1 0 0
-14.1 0.3 0
-14.1 0.6 0
-14.1 0.9 0
-14.1 1.2 0
-14.1 1.5 0
-14.1 1.8 0
-14.1 2.1 0
-14.1 2.4 0
-14.1 2.7 0
-14.1 3 0
-14.1 3.3 0
-14.1 3.6 0
-14.1 3.9 0
-14.1 4.2 0
-14.1 4.5 0
-14.1 4.8 0
-14.1 5.1 0
-14.1 5.4 0
-14.1 5.7 0
-14.1 6 0
-14.1 6.3 0
-14.1 6.6 0
-14.1 6.9 0
-14.1 7.2 0
-14.1 7.5 0
-14.1 7.8 0
-14.1 8.1 0
-14.1 8.4 0
-14.1 8.7 0
-14.1 9 0
-14.1 9.3 0
-14.1 9.6 0
-14.1 9.9 0
-14.1 10.2 0
-14.1 10.5 0
-14.1 10.8 0
-14.1 11.1 0
-14.1 11.4 0
-14.1 11.7 0
-14.1 12 0
-14.1 12.3 0
-14.1 12.6 0
-14.1 12.9 0
-14.1 13.2 0
-14.1 13.5 0
-14.1 13.8 0
-14.1 14.1 0
-14.1 14.4 0
-14.1 14.7 0
-14.1 15 0
-13.8 -15 0
-13.8 -14.7 0
-13.8 -14.4 0
-13.8 -14.1 0
-13.8 -13.8 0
-13.8 -13.5 0
-13.8 -13.2 0
-13.8 -12.9 0
-13.8 -12.6 0
-13.8 -12.3 0
-13.8 -12 0
-13.8 -11.7 0
-13.8 -11.4 0
-13.8 -11.1 0
-13.8 -10.8 0
-13.8 -10.5 0
-13.8 -10.2 0
-13.8 -9.9 0
-13.8 -9.6 0
-13.8 -9.3 0
-13.8 -9 0
-13.8 -8.7 0
-13.8 -8.4 0
-13.8 -8.1 0
-13.8 -7.8 0
-13.8 -7.5 0
-13.8 -7.2 0
-13.8 -6.9 0
-13.8 -6.6 0
-13.8 -6.3 0
-13.8 -6 0
-13.8 -5.7 0
-13.8 -5.4 0
-13.8 -5.1 0
-13.8 -4.8 0
-13.8 -4.5 0
-13.8 -4.2 0
-13.8 -3.9 0
-13.8 -3.6 0
-13.8 -3.3 0
-13.8 -3 0
-13.8 -2.7 0
-13.8 -2.4 0
-13.8 -2.1 0
-13.8 -1.8 0
-13.8 -1.5 0
-13.8 -1.2 0
-13.8 -0.9 0
-13.8 -0.6 0
-13.8 -0.3 0
-13.8 0 0
-13.8 0.3 0
-13.8 0.6 0
-13.8 0.9 0
-13.8 1.2 0
-13.8 1.5 0
-13.8 1.8 0
-13.8 2.1 0
-13.8 2.4 0
-13.8 2.7 0
-13.8 3 0
-13.8 3.3 0
-13.8 3.6 0
-13.8 3.9 0
-13.8 4.2 0
-13.8 4.5 0
-13.8 4.8 0
-13.8 5.1 0
-13.8 5.4 0
-13.8 5.7 0
-13.8 6 0
-13.8 6.3 0
-13.8 6.6 0
-13.8 6.9 0
-13.8 7.2 0
-13.8 7.5 0
-13.8 7.8 0
-13.8 8.1 0
-13.8 8.4 0
-13.8 8.7 0
-13.8 9 0
-13.8 9.3 0
-13.8 9.6 0
-13.8 9.9 0
-13.8 10.2 0
-13.8 10.5 0
-13.8 10.8 0
-13.8 11.1 0
-13.8 11.4 0
-13.8 11.7 0
-13.8 12 0
-13.8 12.3 0
-13.8 12.6 0
-13.8 12.9 0
-13.8 13.2 0
-13.8 13.5 0
-13.8 13.8 0
-13.8 14.1 0
-13.8 14.4 0
-13.8 14.7 0
-13.8 15 0
-13.5 -15 0
-13.5 -14.7 0
-13.5 -14.4 0
-13.5 -14.1 0
-13.5 -13.8 0
-13.5 -13.5 0
-13.5 -13.2 0
-13.5 -12.9 0
-13.5 -12.6 0
-13.5 -12.3 0
-13.5 -12 0
-13.5 -11.7 0
-13.5 -11.4 0
-13.5 -11.1 0
-13.5 -10.8 0
-13.5 -10.5 0
-13.5 -10.2 0
-13.5 -9.9 0
-13.5 -9.6 0
-13.5 -9.3 0
-13.5 -9 0
-13.5 -8.7 0
-13.5 -8.4 0
-13.5 -8.1 0
-13.5 -7.8 0
-13.5 -7.5 0
-13.5 -7.2 0
-13.5 -6.9 0
-13.5 -6.6 0
-13.5 -6.3 0
-13.5 -6 0
-13.5 -5.7 0
-13.5 -5.4 0
-13.5 -5.1 0
-13.5 -4.8 0
-13.5 -4.5 0
-13.5 -4.2 0
-13.5 -3.9 0
-13.5 -3.6 0
-13.5 -3.3 0
-13.5 -3 0
-13.5 -2.7 0
-13.5 -2.4 0
-13.5 -2.1 0
-13.5 -1.8 0
-13.5 -1.5 0
-13.5 -1.2 0
-13.5 -0.9 0
-13.5 -0.6 0
-13.5 -0.3 0
-13.5 0 0
-13.5 0.3 0
-13.5 0.6 0
-13.5 0.9 0
-13.5 1.2 0
-13.5 1.5 0
-13.5 1.8 0
-13.5 2.1 0
-13.5 2.4 0
-13.5 2.7 0
-13.5 3 0
-13.5 3.3 0
-13.5 3.6 0
-13.5 3.9 0
-13.5 4.2 0
-13.5 4.5 0
-13.5 4.8 0
-13.5 5.1 0
-13.5 5.4 0
-13.5 5.7 0
-13.5 6 0
-13.5 6.3 0
-13.5 6.6 0
-13.5 6.9 0
-13.5 7.2 0
-13.5 7.5 0
-13.5 7.8 0
-13.5 8.1 0
-13.5 8.4 0
-13.5 8.7 0
-13.5 9 0
-13.5 9.3 0
-13.5 9.6 0
-13.5 9.9 0
-13.5 10.2 0
-13.5 10.5 0
-13.5 10.8 0
-13.5 11.1 0
-13.5 11.4 0
-13.5 11.7 0
-13.5 12 0
-13.5 12.3 0
-13.5 12.6 0
-13.5 12.9 0
-13.5 13.2 0
-13.5 13.5 0
-13.5 13.8 0
-13.5 14.1 0
-13.5 14.4 0
-13.5 14.7 0
-13.5 15 0
-13.2 -15 0
-13.2 -14.7 0
-13.2 -14.4 0
-13.2 -14.1 0
-13.2 -13.8 0
-13.2 -13.5 0
-13.2 -13.2 0
-13.2 -12.9 0
-13.2 -12.6 0
-13.2 -12.3 0
-13.2 -12 0
-13.2 -11.7 0
-13.2 -11.4 0
-13.2 -11.1 0
-13.2 -10.8 0
-13.2 -10.5 0
-13.2 -10.2 0
-13.2 -9.9 0
-13.2 -9.6 0
-13.2 -9.3 0
-13.2 -9 0
-13.2 -8.7 0
-13.2 -8.4 0
-13.2 -8.1 0
-13.2 -7.8 0
-13.2 -7.5 0
-13.2 -7.2 0
-13.2 -6.9 0
-13.2 -6.6 0
-13.2 -6.3 0
-13.2 -6 0
-13.2 -5.7 0
-13.2 -5.4 0
-13.2 -5.1 0
-13.2 -4.8 0
-13.2 -4.5 0
-13.2 -4.2 0
-13.2 -3.9 0
-13.2 -3.6 0
-13.2 -3.3 0
-13.2 -3 0
-13.2 -2.7 0
-13.2 -2.4 0
-13.2 -2.1 0
-13.2 -1.8 0
-13.2 -1.5 0
-13.2 -1.2 0
-13.2 -0.9 0
-13.2 -0.6 0
-13.2 -0.3 0
-13.2 0 0
-13.2 0.3 0
-13.2 0.6 0
-13.2 0.9 0
-13.2 1.2 0
-13.2 1.5 0
-13.2 1.8 0
-13.2 2.1 0
-13.2 2.4 0
-13.2 2.7 0
-13.2 3 0
-13.2 3.3 0
-13.2 3.6 0
-13.2 3.9 0
-13.2 4.2 0
-13.2 4.5 0
-13.2 4.8 0
-13.2 5.1 0
-13.2 5.4 0
-13.2 5.7 0
-13.2 6 0
-13.2 6.3 0
-13.2 6.6 0
-13.2 6.9 0
-13.2 7.2 0
-13.2 7.5 0
-13.2 7.8 0
-13.2 8.1 0
-13.2 8.4 0
-13.2 8.7 0
-13.2 9 0
-13.2 9.3 0
-13.2 9.6 0
-13.2 9.9 0
-13.2 10.2 0
-13.2 10.5 0
-13.2 10.8 0
-13.2 11.1 0
-13.2 11.4 0
-13.2 11.7 0
-13.2 12 0
-13.2 12.3 0
-13.2 12.6 0
-13.2 12.9 0
-13.2 13.2 0
-13.2 13.5 0
-13.2 13.8 0
-13.2 14.1 0
-13.2 14.4 0
-13.2 14.7 0
-13.2 15 0
-12.9 -15 0
-12.9 -14.7 0
-12.9 -14.4 0
-12.9 -14.1 0
-12.9 -13.8 0
-12.9 -13.5 0
-12.9 -13.2 0
-12.9 -12.9 0
-12.9 -12.6 0
-12.9 -12.3 0
-12.9 -12 0
-12.9 -11.7 0
-12.9 -11.4 0
-12.9 -11.1 0
-12.9 -10.8 0
-12.9 -10.5 0
-12.9 -10.2 0
-12.9 -9.9 0
-12.9 -9.6 0
-12.9 -9.3 0
-12.9 -9 0
-12.9 -8.7 0
-12.9 -8.4 0
-12.9 -8.1 0
-12.9 -7.8 0
-12.9 -7.5 0
-12.9 -7.2 0
-12.9 -6.9 0
-12.9 -6.6 0
-12.9 -6.3 0
-12.9 -6 0
-12.9 -5.7 0
-12.9 -5.4 0
-12.9 -5.1 0
-12.9 -4.8 0
-12.9 -4.5 0
-12.9 -4.2 0
-12.9 -3.9 0
-12.9 -3.6 0
-12.9 -3.3 0
-12.9 -3 0
-12.9 -2.7 0
-12.9 -2.4 0
-12.9 -2.1 0
-12.9 -1.8 0
-12.9 -1.5 0
-12.9 -1.2 0
-12.9 -0.9 0
-12.9 -0.6 0
-12.9 -0.3 0
-12.9 0 0
-12.9 0.3 0
-12.9 0.6 0
-12.9 0.9 0
-12.9 1.2 0
-12.9 1.5 0
-12.9 1.8 0
-12.9 2.1 0
-12.9 2.4 0
-12.9 2.7 0
-12.9 3 0
-12.9 3.3 0
-12.9 3.6 0
-12.9 3.9 0
-12.9 4.2 0
-12.9 4.5 0
-12.9 4.8 0
-12.9 5.1 0
-12.9 5.4 0
-12.9 5.7 0
-12.9 6 0
-12.9 6.3 0
-12.9 6.6 0
-12.9 6.9 0
-12.9 7.2 0
-12.9 7.5 0
-12.9 7.8 0
-12.9 8.1 0
-12.9 8.4 0
-12.9 8.7 0
-12.9 9 0
[...]
            <PointData>
                <DataArray type="Float64" Name="c1" format="ascii">
0.00255825 0.00256108 0.00256958 0.00258373 0.00260353 0.00262896 0.00266001 0.00269664 0.00273883 0.00278654 0.00283972 0.00289833 0.00296229 0.00303154 0.00310598 0.00318553 0.00327006 0.00335945 0.00345354 0.00355218 0.00365517 0.0037623 0.00387333 0.00398801 0.00410604 0.0042271 0.00435084 0.00447688 0.00460482 0.00473419 0.00486453 0.00499533 0.00512603 0.00525609 0.00538488 0.00551181 0.00563622 0.00575747 0.00587488 0.00598778 0.00609552 0.00619742 0.00629285 0.00638119 0.00646185 0.00653428 0.00659799 0.00665253 0.0066975 0.0067326 0.00675756 0.00677222 0.00677648 0.00677033 0.00675381 0.00672708 0.00669035 0.00664391 0.00658813 0.00652343 0.00645029 0.00636926 0.0062809 0.00618584 0.00608473 0.00597823 0.00586703 0.00575182 0.00563328 0.0055121 0.00538895 0.00526449 0.00513935 0.00501413 0.00488941 0.00476575 0.00464367 0.00452364 0.00440612 0.00429153 0.00418025 0.00407264 0.00396902 0.00386968 0.00377488 0.00368487 0.00359984 0.00352 0.00344551 0.00337652 0.00331315 0.00325551 0.00320371 0.00315783 0.00311793 0.00308408 0.00305632 0.00303469 0.00301922 0.00300993 0.00300683 
0.00256008 0.00256292 0.00257144 0.00258562 0.00260546 0.00263095 0.00266206 0.00269877 0.00274106 0.00278887 0.00284218 0.00290092 0.00296504 0.00303445 0.00310908 0.00318883 0.00327358 0.0033632 0.00345755 0.00355647 0.00365975 0.0037672 0.00387857 0.0039936 0.00411201 0.00423347 0.00435764 0.00448413 0.00461252 0.00474238 0.00487322 0.00500454 0.00513578 0.00526638 0.00539573 0.00552322 0.0056482 0.00577001 0.00588798 0.00600144 0.00610971 0.00621214 0.00630806 0.00639687 0.00647796 0.00655079 0.00661484 0.00666968 0.00671491 0.0067502 0.00677531 0.00679005 0.00679434 0.00678814 0.00677153 0.00674465 0.00670771 0.00666101 0.00660492 0.00653986 0.00646632 0.00638484 0.00629601 0.00620046 0.00609882 0.00599178 0.00588003 0.00576425 0.00564515 0.00552341 0.0053997 0.00527468 0.00514899 0.00502324 0.00489802 0.00477386 0.0046513 0.00453081 0.00441286 0.00429785 0.00418618 0.0040782 0.00397423 0.00387457 0.00377947 0.00368917 0.00360389 0.00352381 0.0034491 0.00337991 0.00331636 0.00325856 0.00320662 0.00316061 0.00312061 0.00308667 0.00305883 0.00303715 0.00302164 0.00301233 0.00300922 
0.00256557 0.00256843 0.002577 0.00259127 0.00261124 0.00263689 0.00266821 0.00270516 0.00274773 0.00279587 0.00284954 0.00290869 0.00297327 0.00304318 0.00311837 0.00319872 0.00328412 0.00337446 0.00346958 0.00356932 0.00367349 0.00378189 0.00389427 0.00401038 0.00412993 0.00425259 0.00437803 0.00450585 0.00463564 0.00476696 0.00489931 0.00503218 0.00516503 0.00529727 0.0054283 0.00555749 0.00568417 0.00580769 0.00592735 0.00604247 0.00615237 0.00625636 0.00635377 0.00644398 0.00652638 0.00660039 0.00666551 0.00672126 0.00676725 0.00680314 0.00682867 0.00684367 0.00684802 0.00684172 0.00682482 0.00679747 0.0067599 0.00671241 0.00665537 0.00658923 0.00651448 0.00643168 0.00634143 0.00624437 0.00614116 0.00603249 0.00591907 0.00580161 0.0056808 0.00555736 0.00543196 0.00530528 0.00517796 0.00505062 0.00492384 0.00479819 0.00467419 0.00455233 0.00443307 0.00431682 0.00420397 0.00409488 0.00398986 0.00388922 0.00379321 0.00370207 0.00361601 0.00353522 0.00345986 0.00339007 0.00332598 0.00326771 0.00321534 0.00316897 0.00312864 0.00309443 0.00306638 0.00304453 0.0030289 0.00301952 0.00301639 
0.0025747 0.00257759 0.00258625 0.00260067 0.00262085 0.00264678 0.00267843 0.00271579 0.00275883 0.00280751 0.00286179 0.00292163 0.00298696 0.00305772 0.00313382 0.00321518 0.00330168 0.0033932 0.0034896 0.00359072 0.00369637 0.00380635 0.00392042 0.00403833 0.00415978 0.00428446 0.00441202 0.00454207 0.0046742 0.00480794 0.00494282 0.00507831 0.00521385 0.00534885 0.00548268 0.00561471 0.00574426 0.00587064 0.00599314 0.00611106 0.00622368 0.0063303 0.00643023 0.00652281 0.0066074 0.00668341 0.0067503 0.00680759 0.00685486 0.00689175 0.006918 0.00693342 0.00693789 0.00693141 0.00691402 0.0068859 0.00684726 0.00679844 0.00673981 0.00667184 0.00659505 0.00651003 0.00641738 0.00631779 0.00621194 0.00610054 0.00598432 0.00586402 0.00574036 0.00561406 0.00548583 0.00535636 0.0052263 0.00509629 0.00496693 0.00483878 0.00471237 0.00458821 0.00446675 0.00434842 0.0042336 0.00412266 0.0040159 0.00391363 0.0038161 0.00372356 0.0036362 0.00355421 0.00347776 0.00340698 0.003342 0.00328293 0.00322986 0.00318286 0.00314201 0.00310735 0.00307894 0.00305681 0.00304098 0.00303148 0.00302831 
0.00258744 0.00259036 0.00259915 0.00261378 0.00263426 0.00266057 0.0026927 0.00273062 0.00277432 0.00282375 0.00287889 0.00293968 0.00300608 0.00307801 0.0031554 0.00323817 0.0033262 0.00341939 0.00351759 0.00362064 0.00372837 0.00384057 0.00395701 0.00407744 0.00420157 0.00432908 0.00445962 0.00459281 0.00472822 0.00486539 0.00500383 0.005143 0.00528234 0.00542123 0.00555903 0.00569508 0.00582868 0.0059591 0.00608563 0.00620751 0.00632399 0.00643434 0.00653784 0.00663377 0.00672147 0.00680032 0.00686974 0.00692922 0.00697831 0.00701663 0.0070439 0.00705992 0.00706457 0.00705782 0.00703974 0.00701051 0.00697036 0.00691963 0.00685874 0.00678818 0.0067085 0.00662031 0.00652427 0.00642108 0.00631148 0.0061962 0.00607602 0.0059517 0.005824 0.00569367 0.00556145 0.00542803 0.00529411 0.00516034 0.00502733 0.00489566 0.00476587 0.00463847 0.00451392 0.00439266 0.00427508 0.00416152 0.00405232 0.00394776 0.00384811 0.00375359 0.00366441 0.00358075 0.00350277 0.0034306 0.00336437 0.00330418 0.00325012 0.00320226 0.00316066 0.00312538 0.00309646 0.00307394 0.00305783 0.00304816 0.00304494 
0.00260373 0.00260671 0.00261566 0.00263057 0.00265143 0.00267823 0.00271096 0.00274961 0.00279415 0.00284455 0.00290079 0.00296281 0.00303057 0.00310401 0.00318306 0.00326764 0.00335765 0.00345298 0.00355349 0.00365903 0.00376943 0.00388449 0.00400399 0.00412768 0.00425527 0.00438644 0.00452084 0.00465808 0.00479774 0.00493936 0.00508241 0.00522637 0.00537063 0.00551458 0.00565754 0.00579882 0.0059377 0.00607341 0.00620518 0.00633223 0.00645377 0.006569 0.00667716 0.00677749 0.00686928 0.00695185 0.00702459 0.00708694 0.00713841 0.00717861 0.00720723 0.00722403 0.0072289 0.00722181 0.00720283 0.00717213 0.00712999 0.00707677 0.00701291 0.00693895 0.00685546 0.00676313 0.00666264 0.00655475 0.00644023 0.0063199 0.00619454 0.00606498 0.00593201 0.00579643 0.005659 0.00552046 0.00538153 0.00524287 0.00510512 0.00496888 0.00483471 0.00470312 0.00457458 0.00444954 0.00432837 0.00421145 0.00409909 0.00399158 0.00388919 0.00379212 0.00370059 0.00361478 0.00353483 0.00346087 0.00339303 0.0033314 0.00327607 0.00322709 0.00318454 0.00314847 0.0031189 0.00309587 0.0030794 0.00306952 0.00306622 
0.00262352 0.00262657 0.00263572 0.00265095 0.00267228 0.00269968 0.00273316 0.00277269 0.00281826 0.00286984 0.00292741 0.00299094 0.00306037 0.00313566 0.00321673 0.00330353 0.00339595 0.0034939 0.00359724 0.00370583 0.00381951 0.00393808 0.00406134 0.00418902 0.00432085 0.00445652 0.00459567 0.00473792 0.00488282 0.00502991 0.00517867 0.00532854 0.0054789 0.00562911 0.00577847 0.00592625 0.00607168 0.00621397 0.00635228 0.00648578 0.00661361 0.00673494 0.00684893 0.00695476 0.00705166 0.0071389 0.0072158 0.00728175 0.00733623 0.00737879 0.00740909 0.00742688 0.00743203 0.0074245 0.00740438 0.00737185 0.00732721 0.00727085 0.00720327 0.00712503 0.00703678 0.00693925 0.0068332 0.00671943 0.00659879 0.00647213 0.00634033 0.00620424 0.00606473 0.00592262 0.00577874 0.00563385 0.0054887 0.005344 0.0052004 0.00505852 0.00491894 0.00478218 0.00464873 0.00451903 0.00439346 0.0042724 0.00415617 0.00404504 0.00393927 0.00383909 0.00374469 0.00365623 0.00357387 0.00349773 0.00342792 0.00336453 0.00330763 0.0032573 0.00321359 0.00317653 0.00314616 0.00312252 0.00310562 0.00309547 0.00309209 
0.00264675 0.00264987 0.00265925 0.00267488 0.00269675 0.00272486 0.00275921 0.00279978 0.00284657 0.00289955 0.0029587 0.00302399 0.00309539 0.00317286 0.00325633 0.00334575 0.00344102 0.00354206 0.00364876 0.00376096 0.00387853 0.00400127 0.00412898 0.00426141 0.0043983 0.00453932 0.00468413 0.00483233 0.0049835 0.00513714 0.00529272 0.00544967 0.00560735 0.00576508 0.00592213 0.00607774 0.00623107 0.00638129 0.0065275 0.00666879 0.00680427 0.00693299 0.00705406 0.00716658 0.0072697 0.00736261 0.00744458 0.00751493 0.00757307 0.00761851 0.00765087 0.00766987 0.00767536 0.0076673 0.00764579 0.00761101 0.00756332 0.00750313 0.00743099 0.00734755 0.0072535 0.00714964 0.00703682 0.00691592 0.00678784 0.00665354 0.00651394 0.00636997 0.00622256 0.0060726 0.00592095 0.00576843 0.00561583 0.00546388 0.00531327 0.00516465 0.00501861 0.00487569 0.00473637 0.00460111 0.00447031 0.00434433 0.00422348 0.00410806 0.00399829 0.00389441 0.0037966 0.00370502 0.0036198 0.00354107 0.00346893 0.00340346 0.00334473 0.00329279 0.00324769 0.00320948 0.00317818 0.00315381 0.00313639 0.00312594 0.00312245 
0.00267331 0.00267652 0.00268617 0.00270224 0.00272475 0.00275368 0.00278903 0.0028308 0.00287898 0.00293357 0.00299453 0.00306187 0.00313554 0.00321552 0.00330175 0.00339419 0.00349276 0.00359738 0.00370795 0.00382434 0.0039464 0.00407397 0.00420685 0.00434479 0.00448755 0.00463479 0.00478619 0.00494135 0.00509982 0.00526111 0.00542468 0.00558993 0.00575619 0.00592277 0.00608887 0.0062537 0.00641636 0.00657595 0.00673151 0.00688206 0.0070266 0.00716411 0.00729361 0.0074141 0.00752465 0.00762435 0.00771239 0.007788 0.00785053 0.00789943 0.00793427 0.00795472 0.00796062 0.00795193 0.00792873 0.00789126 0.0078399 0.00777511 0.00769753 0.00760784 0.00750685 0.00739545 0.00727455 0.00714515 0.00700824 0.00686486 0.00671601 0.00656273 0.00640599 0.00624676 0.00608596 0.00592446 0.00576311 0.00560266 0.00544385 0.00528735 0.00513375 0.00498363 0.00483748 0.00469576 0.00455887 0.00442717 0.00430097 0.00418055 0.00406616 0.00395799 0.00385623 0.00376103 0.00367252 0.0035908 0.00351596 0.00344809 0.00338723 0.00333344 0.00328676 0.00324721 0.00321483 0.00318962 0.00317161 0.0031608 0.00315719 
0.00270312 0.00270643 0.00271638 0.00273296 0.00275617 0.00278602 0.00282251 0.00286563 0.00291539 0.00297179 0.00303482 0.00310446 0.0031807 0.00326352 0.00335288 0.00344874 0.00355105 0.00365973 0.0037747 0.00389584 0.00402302 0.00415609 0.00429485 0.00443908 0.00458854 0.0047429 0.00490185 0.00506497 0.00523182 0.00540191 0.00557468 0.00574949 0.00592567 0.00610247 0.00627907 0.0064546 0.00662811 0.00679862 0.0069651 0.00712646 0.00728161 0.00742944 0.00756883 0.00769871 0.00781801 0.00792573 0.00802093 0.00810278 0.00817051 0.00822352 0.00826129 0.00828347 0.00828986 0.00828041 0.00825522 0.00821456 0.00815883 0.0080886 0.00800455 0.00790749 0.00779831 0.007678 0.0075476 0.00740821 0.00726094 0.00710693 0.00694729 0.00678313 0.00661554 0.00644554 0.00627413 0.00610224 0.00593077 0.00576052 0.00559225 0.00542667 0.0052644 0.00510602 0.00495204 0.00480292 0.00465906 0.00452082 0.00438852 0.00426241 0.00414274 0.0040297 0.00392345 0.00382414 0.00373188 0.00364677 0.00356889 0.00349829 0.00343502 0.00337913 0.00333065 0.0032896 0.00325599 0.00322984 0.00321115 0.00319994 0.0031962 
0.00273605 0.00273948 0.00274976 0.00276691 0.00279091 0.00282178 0.00285953 0.00290416 0.00295568 0.0030141 0.00307941 0.00315162 0.00323073 0.00331672 0.00340957 0.00350926 0.00361575 0.00372897 0.00384886 0.00397532 0.00410825 0.00424748 0.00439286 0.00454418 0.00470118 0.00486358 0.00503104 0.00520318 0.00537954 0.00555961 0.00574283 0.00592854 0.00611604 0.00630453 0.00649314 0.00668095 0.00686694 0.00705003 0.0072291 0.00740297 0.00757043 0.00773024 0.00788116 0.00802198 0.00815151 0.00826861 0.00837222 0.00846139 0.00853524 0.00859308 0.00863431 0.00865854 0.00866551 0.00865516 0.00862762 0.00858319 0.00852233 0.00844569 0.00835405 0.00824833 0.00812954 0.00799882 0.00785734 0.00770632 0.00754702 0.00738069 0.00720857 0.00703187 0.00685178 0.00666941 0.00648584 0.00630206 0.00611903 0.0059376 0.00575858 0.00558268 0.00541057 0.00524283 0.00507999 0.00492251 0.00477079 0.00462519 0.00448601 0.00435351 0.00422791 0.0041094 0.00399812 0.0038942 0.00379775 0.00370884 0.00362754 0.0035539 0.00348795 0.00342972 0.00337923 0.00333649 0.00330152 0.00327431 0.00325487 0.00324321 0.00323933 
0.002772 0.00277555 0.0027862 0.00280396 0.00282883 0.00286083 0.00289996 0.00294625 0.0029997 0.00306034 0.00312817 0.00320322 0.00328548 0.00337497 0.00347167 0.00357559 0.00368669 0.00380493 0.00393027 0.00406264 0.00420192 0.00434801 0.00450075 0.00465994 0.00482536 0.00499673 0.00517372 0.00535594 0.00554296 0.00573425 0.00592923 0.00612724 0.00632752 0.00652925 0.0067315 0.00693328 0.00713349 0.00733096 0.00752447 0.0077127 0.00789432 0.00806795 0.0082322 0.00838571 0.00852712 0.00865515 0.00876858 0.0088663 0.00894733 0.00901083 0.00905613 0.00908275 0.00909041 0.00907902 0.00904872 0.00899986 0.00893298 0.00884883 0.0087483 0.00863246 0.00850249 0.00835966 0.00820532 0.00804086 0.00786768 0.00768718 0.00750074 0.00730969 0.00711533 0.00691888 0.00672148 0.00652423 0.00632812 0.00613407 0.00594291 0.00575541 0.00557225 0.00539402 0.00522126 0.00505443 0.00489394 0.00474013 0.0045933 0.00445369 0.0043215 0.00419691 0.00408006 0.00397104 0.00386995 0.00377684 0.00369177 0.00361476 0.00354584 0.00348503 0.00343232 0.00338773 0.00335125 0.00332288 0.00330262 0.00329046 0.00328641 
0.0028108 0.00281449 0.00282554 0.00284397 0.00286979 0.00290301 0.00294365 0.00299174 0.0030473 0.00311036 0.00318094 0.00325908 0.00334478 0.00343809 0.003539 0.00364753 0.00376368 0.00388743 0.00401875 0.00415759 0.00430387 0.0044575 0.00461834 0.00478622 0.00496093 0.00514222 0.00532976 0.00552319 0.00572206 0.00592585 0.00613397 0.00634573 0.00656035 0.00677696 0.00699458 0.00721213 0.00742844 0.00764225 0.00785218 0.00805682 0.00825465 0.00844416 0.00862376 0.00879192 0.00894709 0.00908781 0.00921266 0.00932037 0.00940979 0.00947993 0.00953 0.00955944 0.0095679 0.00955529 0.00952175 0.0094677 0.00939377 0.00930082 0.00918991 0.00906229 0.00891931 0.00876246 0.00859327 0.00841333 0.00822422 0.00802751 0.00782473 0.00761737 0.00740682 0.00719444 0.00698145 0.00676903 0.00655823 0.00635004 0.00614532 0.00594487 0.0057494 0.0055595 0.00537573 0.00519855 0.00502835 0.00486547 0.00471019 0.00456274 0.00442331 0.00429205 0.00416906 0.00405445 0.00394827 0.00385056 0.00376136 0.00368067 0.00360851 0.00354487 0.00348975 0.00344313 0.00340501 0.00337537 0.00335421 0.00334151 0.00333728 
0.00285232 0.00285615 0.00286764 0.00288679 0.00291363 0.00294817 0.00299044 0.00304048 0.00309831 0.00316398 0.00323754 0.00331901 0.00340844 0.00350588 0.00361135 0.0037249 0.00384652 0.00397625 0.00411407 0.00425995 0.00441386 0.00457571 0.00474541 0.0049228 0.00510771 0.00529989 0.00549904 0.00570481 0.00591677 0.00613439 0.00635707 0.00658412 0.00681471 0.00704794 0.00728276 0.00751804 0.00775249 0.00798474 0.0082133 0.00843659 0.00865292 0.0088606 0.00905784 0.00924288 0.00941397 0.00956941 0.00970756 0.00982693 0.00992615 0.0100041 0.0100597 0.0100925 0.0101019 0.0100878 0.0100505 0.00999035 0.00990814 0.00980491 0.00968188 0.00954053 0.00938246 0.00920938 0.00902308 0.00882536 0.00861803 0.00840285 0.00818152 0.00795569 0.00772689 0.00749658 0.00726611 0.00703672 0.00680954 0.0065856 0.00636582 0.00615103 0.00594193 0.00573916 0.00554326 0.00535468 0.00517382 0.005001 0.00483647 0.00468045 0.00453311 0.00439456 0.0042649 0.0041442 0.00403248 0.00392978 0.00383609 0.00375142 0.00367574 0.00360904 0.0035513 0.00350249 0.00346259 0.00343158 0.00340945 0.00339617 0.00339174 
0.00289639 0.00290037 0.00291232 0.00293225 0.00296018 0.00299613 0.00304015 0.00309227 0.00315254 0.00322102 0.00329775 0.00338281 0.00347625 0.00357812 0.0036885 0.00380744 0.00393497 0.00407115 0.00421598 0.00436949 0.00453164 0.00470241 0.00488172 0.00506945 0.00526545 0.00546951 0.00568136 0.00590065 0.00612696 0.00635979 0.00659852 0.00684245 0.00709074 0.00734243 0.00759643 0.00785151 0.0081063 0.00835931 0.00860891 0.00885333 0.00909072 0.00931916 0.00953663 0.00974113 0.00993063 0.0101032 0.0102568 0.0103898 0.0105005 0.0105875 0.0106498 0.0106864 0.0106969 0.0106812 0.0106393 0.010572 0.0104801 0.0103648 0.0102276 0.0100702 0.00989464 0.0097028 0.00949679 0.00927871 0.00905058 0.00881442 0.0085721 0.00832545 0.00807615 0.00782578 0.00757579 0.00732752 0.00708215 0.00684079 0.00660438 0.00637377 0.00614971 0.00593281 0.00572363 0.0055226 0.00533011 0.00514646 0.00497187 0.00480655 0.00465062 0.00450419 0.00436731 0.00424002 0.00412233 0.00401424 0.00391573 0.00382676 0.0037473 0.00367731 0.00361675 0.00356559 0.00352378 0.0034913 0.00346812 0.00345421 0.00344958 
0.00294283 0.00294697 0.00295941 0.00298016 0.00300925 0.00304671 0.00309258 0.00314692 0.00320978 0.00328125 0.00336137 0.00345025 0.00354796 0.00365458 0.0037702 0.0038949 0.00402876 0.00417184 0.0043242 0.00448589 0.00465693 0.0048373 0.00502698 0.00522588 0.00543389 0.00565083 0.00587646 0.00611046 0.00635244 0.00660189 0.00685823 0.00712072 0.00738851 0.0076606 0.00793586 0.00821299 0.0084905 0.00876679 0.00904007 0.0093084 0.00956973 0.00982186 0.0100625 0.0102895 0.0105003 0.0106927 0.0108645 0.0110134 0.0111376 0.0112354 0.0113054 0.0113466 0.0113584 0.0113406 0.0112934 0.0112176 0.0111143 0.0109847 0.0108309 0.0106549 0.0104589 0.0102453 0.0100166 0.00977519 0.00952339 0.00926343 0.00899744 0.00872741 0.00845517 0.00818244 0.00791077 0.00764157 0.00737613 0.00711557 0.00686089 0.00661296 0.00637253 0.00614022 0.00591658 0.00570203 0.00549692 0.00530154 0.00511609 0.00494072 0.00477555 0.00462063 0.00447599 0.00434163 0.00421754 0.00410367 0.00399999 0.00390642 0.00382292 0.00374942 0.00368586 0.00363218 0.00358834 0.00355429 0.00352999 0.00351542 0.00351056 
0.00299144 0.00299576 0.00300872 0.00303034 0.00306065 0.0030997 0.00314753 0.00320421 0.00326982 0.00334444 0.00342816 0.00352109 0.00362332 0.00373498 0.00385616 0.00398699 0.00412758 0.00427802 0.00443842 0.00460885 0.00478937 0.00498003 0.00518083 0.00539174 0.00561267 0.0058435 0.00608402 0.00633395 0.00659293 0.00686048 0.00713601 0.00741879 0.00770798 0.00800254 0.00830128 0.00860283 0.00890564 0.00920796 0.00950785 0.00980318 0.0100917 0.0103709 0.0106382 0.010891 0.0111266 0.0113423 0.0115353 0.011703 0.0118432 0.0119537 0.0120328 0.0120793 0.0120925 0.0120722 0.0120188 0.0119329 0.0118159 0.0116696 0.0114962 0.0112982 0.0110784 0.0108397 0.0105848 0.0103167 0.010038 0.00975109 0.00945847 0.00916225 0.00886444 0.00856687 0.00827121 0.00797895 0.00769143 0.00740983 0.00713518 0.00686835 0.00661011 0.00636108 0.00612177 0.0058926 0.00567389 0.00546588 0.00526875 0.00508261 0.00490753 0.00474352 0.00459059 0.00444869 0.00431777 0.00419776 0.00408857 0.00399012 0.00390233 0.0038251 0.00375835 0.00370201 0.003656 0.00362029 0.00359481 0.00357953 0.00357444 
0.00304202 0.00304652 0.00306003 0.00308256 0.00311416 0.00315488 0.00320477 0.00326392 0.00333241 0.00341036 0.00349787 0.00359506 0.00370207 0.00381903 0.0039461 0.00408341 0.00423111 0.00438935 0.00455827 0.00473798 0.0049286 0.00513022 0.00534288 0.00556661 0.00580139 0.00604712 0.00630365 0.00657074 0.00684808 0.00713521 0.00743157 0.00773645 0.008049 0.00836817 0.00869274 0.00902128 0.00935215 0.00968349 0.0100132 0.010339 0.0106583 0.0109685 0.0112665 0.0115493 0.0118137 0.0120566 0.0122746 0.0124647 0.0126238 0.0127492 0.0128391 0.0128918 0.0129067 0.0128833 0.0128222 0.0127243 0.0125912 0.012425 0.0122284 0.0120046 0.0117569 0.0114888 0.0112038 0.0109051 0.0105957 0.0102785 0.00995599 0.00963054 0.00930432 0.00897928 0.00865718 0.00833959 0.0080279 0.00772333 0.00742693 0.0071396 0.00686208 0.00659498 0.0063388 0.0060939 0.00586059 0.00563906 0.00542944 0.0052318 0.00504615 0.00487249 0.00471074 0.00456084 0.00442268 0.00429616 0.00418115 0.00407754 0.00398521 0.00390404 0.00383393 0.00377477 0.0037265 0.00368903 0.0036623 0.00364629 0.00364095 