<?xml version="1.0"?>
<VTKFile type="StructuredGrid" version="0.1">
    <StructuredGrid WholeExtent="0 100 0 100 0 0">
        <Piece Extent="0 100 0 100 0 0">
            <Points>
                <DataArray type="Float64" NumberOfComponents="3" format="ascii">
-15 -15 0
-15 -14.7 0
-15 -14.4 0
-15 -14.1 0
-15 -13.8 0
-15 -13.5 0
-15 -13.2 0
-15 -12.9 0
-15 -12.6 0
-15 -12.3 0
-15 -12 0
-15 -11.7 0
-15 -11.4 0
-15 -11.1 0
-15 -10.8 0
-15 -10.5 0
-15 -10.2 0
-15 -9.9 0
-15 -9.6 0
-15 -9.3 0
-15 -9 0
-15 -8.7 0
-15 -8.4 0
-15 -8.1 0
-15 -7.8 0
-15 -7.5 0
-15 -7.2 0
-15 -6.9 0
-15 -6.6 0
-15 -6.3 0
-15 -6 0
-15 -5.7 0
-15 -5.4 0
-15 -5.1 0
-15 -4.8 0
-15 -4.5 0
-15 -4.2 0
-15 -3.9 0
-15 -3.6 0
-15 -3.3 0
-15 -3 0
-15 -2.7 0
-15 -2.4 0
-15 -2.1 0
-15 -1.8 0
-15 -1.5 0
-15 -1.2 0
-15 -0.9 0
-15 -0.6 0
-15 -0.3 0
-15 0 0
-15 0.3 0
-15 0.6 0
-15 0.9 0
-15 1.2 0
-15 1.5 0
-15 1.8 0
-15 2.1 0
-15 2.4 0
-15 2.7 0
-15 3 0
-15 3.3 0
-15 3.6 0
-15 3.9 0
-15 4.2 0
-15 4.5 0
-15 4.8 0
-15 5.1 0
-15 5.4 0
-15 5.7 0
-15 6 0
-15 6.3 0
-15 6.6 0
-15 6.9 0
-15 7.2 0
-15 7.5 0
-15 7.8 0
-15 8.1 0
-15 8.4 0
-15 8.7 0
-15 9 0
-15 9.3 0
-15 9.6 0
-15 9.9 0
-15 10.2 0
-15 10.5 0
-15 10.8 0
-15 11.1 0
-15 11.4 0
-15 11.7 0
-15 12 0
-15 12.3 0
-15 12.6 0
-15 12.9 0
-15 13.2 0
-15 13.5 0
-15 13.8 0
-15 14.1 0
-15 14.4 0
-15 14.7 0
-15 15 0
-14.7 -15 0
-14.7 -14.7 0
-14.7 -14.4 0
-14.7 -14.1 0
-14.7 -13.8 0
-14.7 -13.5 0
-14.7 -13.2 0
-14.7 -12.9 0
-14.7 -12.6 0
-14.7 -12.3 0
-14.7 -12 0
-14.7 -11.7 0
-14.7 -11.4 0
-14.7 -11.1 0
-14.7 -10.8 0
-14.7 -10.5 0
-14.7 -10.2 0
-14.7 -9.9 0
-14.7 -9.6 0
-14.7 -9.3 0
-14.7 -9 0
-14.7 -8.7 0
-14.7 -8.4 0
-14.7 -8.1 0
-14.7 -7.8 0
-14.7 -7.5 0
-14.7 -7.2 0
-14.7 -6.9 0
-14.7 -6.6 0
-14.7 -6.3 0
-14.7 -6 0
-14.7 -5.7 0
-14.7 -5.4 0
-14.7 -5.1 0
-14.7 -4.8 0
-14.7 -4.5 0
-14.7 -4.2 0
-14.7 -3.9 0
-14.7 -3.6 0
-14.7 -3.3 0
-14.7 -3 0
-14.7 -2.7 0
-14.7 -2.4 0
-14.7 -2.1 0
-14.7 -1.8 0
-14.7 -1.5 0
-14.7 -1.2 0
-14.7 -0.9 0
-14.7 -0.6 0
-14.7 -0.3 0
-14.7 0 0
-14.7 0.3 0
-14.7 0.6 0
-14.7 0.9 0
-14.7 1.2 0
-14.7 1.5 0
-14.7 1.8 0
-14.7 2.1 0
-14.7 2.4 0
-14.7 2.7 0
-14.7 3 0
-14.7 3.3 0
-14.7 3.6 0
-14.7 3.9 0
-14.7 4.2 0
-14.7 4.5 0
-14.7 4.8 0
-14.7 5.1 0
-14.7 5.4 0
-14.7 5.7 0
-14.7 6 0
-14.7 6.3 0
-14.7 6.6 0
-14.7 6.9 0
-14.7 7.2 0
-14.7 7.5 0
-14.7 7.8 0
-14.7 8.1 0
-14.7 8.4 0
-14.7 8.7 0
-14.7 9 0
-14.7 9.3 0
-14.7 9.6 0
-14.7 9.9 0
-14.7 10.2 0
-14.7 10.5 0
-14.7 10.8 0
-14.7 11.1 0
-14.7 11.4 0
-14.7 11.7 0
-14.7 12 0
-14.7 12.3 0
-14.7 12.6 0
-14.7 12.9 0
-14.7 13.2 0
-14.7 13.5 0
-14.7 13.8 0
-14.7 14.1 0
-14.7 14.4 0
-14.7 14.7 0
-14.7 15 0
-14.4 -15 0
-14.4 -14.7 0
-14.4 -14.4 0
-14.4 -14.1 0
-14.4 -13.8 0
-14.4 -13.5 0
-14.4 -13.2 0
-14.4 -12.9 0
-14.4 -12.6 0
-14.4 -12.3 0
-14.4 -12 0
-14.4 -11.7 0
-14.4 -11.4 0
-14.4 -11.1 0
-14.4 -10.8 0
-14.4 -10.5 0
-14.4 -10.2 0
-14.4 -9.9 0
-14.4 -9.6 0
-14.4 -9.3 0
-14.4 -9 0
-14.4 -8.7 0
-14.4 -8.4 0
-14.4 -8.1 0
-14.4 -7.8 0
-14.4 -7.5 0
-14.4 -7.2 0
-14.4 -6.9 0
-14.4 -6.6 0
-14.4 -6.3 0
-14.4 -6 0
-14.4 -5.7 0
-14.4 -5.4 0
-14.4 -5.1 0
-14.4 -4.8 0
-14.4 -4.5 0
-14.4 -4.2 0
-14.4 -3.9 0
-14.4 -3.6 0
-14.4 -3.3 0
-14.4 -3 0
-14.4 -2.7 0
-14.4 -2.4 0
-14.4 -2.1 0
-14.4 -1.8 0
-14.4 -1.5 0
-14.4 -1.2 0
-14.4 -0.9 0
-14.4 -0.6 0
-14.4 -0.3 0
-14.4 0 0
-14.4 0.3 0
-14.4 0.6 0
-14.4 0.9 0
-14.4 1.2 0
-14.4 1.5 0
-14.4 1.8 0
-14.4 2.1 0
-14.4 2.4 0
-14.4 2.7 0
-14.4 3 0
-14.4 3.3 0
-14.4 3.6 0
-14.4 3.9 0
-14.4 4.2 0
-14.4 4.5 0
-14.4 4.8 0
-14.4 5.1 0
-14.4 5.4 0
-14.4 5.7 0
-14.4 6 0
-14.4 6.3 0
-14.4 6.6 0
-14.4 6.9 0
-14.4 7.2 0
-14.4 7.5 0
-14.4 7.8 0
-14.4 8.1 0
-14.4 8.4 0
-14.4 8.7 0
-14.4 9 0
-14.4 9.3 0
-14.4 9.6 0
-14.4 9.9 0
-14.4 10.2 0
-14.4 10.5 0
-14.4 10.8 0
-14.4 11.1 0
-14.4 11.4 0
-14.4 11.7 0
-14.4 12 0
-14.4 12.3 0
-14.4 12.6 0
-14.4 12.9 0
-14.4 13.2 0
-14.4 13.5 0
-14.4 13.8 0
-14.4 14.1 0
-14.4 14.4 0
-14.4 14.7 0
-14.4 15 0
-14.1 -15 0
-14.1 -14.7 0
-14.1 -14.4 0
-14.1 -14.1 0
-14.1 -13.8 0
-14.1 -13.5 0
-14.1 -13.2 0
-14.1 -12.9 0
-14.1 -12.6 0
-14.1 -12.3 0
-14.1 -12 0
-14.1 -11.7 0
-14.1 -11.4 0
-14.1 -11.1 0
-14.1 -10.8 0
-14.1 -10.5 0
-14.1 -10.2 0
-14.1 -9.9 0
-14.1 -9.6 0
-14.1 -9.3 0
-14.1 -9 0
-14.1 -8.7 0
-14.1 -8.4 0
-14.1 -8.1 0
-14.1 -7.8 0
-14.1 -7.5 0
-14.1 -7.2 0
-14.1 -6.9 0
-14.1 -6.6 0
-14.1 -6.3 0
-14.1 -6 0
-14.1 -5.7 0
-14.1 -5.4 0
-14.1 -5.1 0
-14.1 -4.8 0
-14.1 -4.5 0
-14.1 -4.2 0
-14.1 -3.9 0
-14.1 -3.6 0
-14.1 -3.3 0
-14.1 -3 0
-14.1 -2.7 0
-14.1 -2.4 0
-14.1 -2.1 0
-14.1 -1.8 0
-14.1 -1.5 0
-14.1 -1.2 0
-14.1 -0.9 0
-14.1 -0.6 0
-14.1 -0.3 0
-14.1 0 0
-14.1 0.3 0
-14.1 0.6 0
-14.1 0.9 0
-14.1 1.2 0
-14.1 1.5 0
-14.1 1.8 0
-14.1 2.1 0
-14.1 2.4 0
-14.1 2.7 0
-14.1 3 0
-14.1 3.3 0
-14.1 3.6 0
-14.1 3.9 0
-14.1 4.2 0
-14.1 4.5 0
-14.1 4.8 0
-14.1 5.1 0
-14.1 5.4 0
-14.1 5.7 0
-14.1 6 0
-14.1 6.3 0
-14.1 6.6 0
-14.1 6.9 0
-14.1 7.2 0
-14.1 7.5 0
-14.1 7.8 0
-14.1 8.1 0
-14.1 8.4 0
-14.1 8.7 0
-14.1 9 0
-14.1 9.3 0
-14.1 9.6 0
-14.1 9.9 0
-14.1 10.2 0
-14.1 10.5 0
-14.1 10.8 0
-14.1 11.1 0
-14.1 11.4 0
-14.1 11.7 0
-14.1 12 0
-14.1 12.3 0
-14.1 12.6 0
-14.1 12.9 0
-14.1 13.2 0
-14.1 13.5 0
-14.1 13.8 0
-14.1 14.1 0
-14.1 14.4 0
-14.1 14.7 0
-14.1 15 0
-13.8 -15 0
-13.8 -14.7 0
-13.8 -14.4 0
-13.8 -14.1 0
-13.8 -13.8 0
-13.8 -13.5 0
-13.8 -13.2 0
-13.8 -12.9 0
-13.8 -12.6 0
-13.8 -12.3 0
-13.8 -12 0
-13.8 -11.7 0
-13.8 -11.4 0
-13.8 -11.1 0
-13.8 -10.8 0
-13.8 -10.5 0
-13.8 -10.2 0
-13.8 -9.9 0
-13.8 -9.6 0
-13.8 -9.3 0
-13.8 -9 0
-13.8 -8.7 0
-13.8 -8.4 0
-13.8 -8.1 0
-13.8 -7.8 0
-13.8 -7.5 0
-13.8 -7.2 0
-13.8 -6.9 0
-13.8 -6.6 0
-13.8 -6.3 0
-13.8 -6 0
-13.8 -5.7 0
-13.8 -5.4 0
-13.8 -5.1 0
-13.8 -4.8 0
-13.8 -4.5 0
-13.8 -4.2 0
-13.8 -3.9 0
-13.8 -3.6 0
-13.8 -3.3 0
-13.8 -3 0
-13.8 -2.7 0
-13.8 -2.4 0
-13.8 -2.1 0
-13.8 -1.8 0
-13.8 -1.5 0
-13.8 -1.2 0
-13.8 -0.9 0
-13.8 -0.6 0
-13.8 -0.3 0
-13.8 0 0
-13.8 0.3 0
-13.8 0.6 0
-13.8 0.9 0
-13.8 1.2 0
-13.8 1.5 0
-13.8 1.8 0
-13.8 2.1 0
-13.8 2.4 0
-13.8 2.7 0
-13.8 3 0
-13.8 3.3 0
-13.8 3.6 0
-13.8 3.9 0
-13.8 4.2 0
-13.8 4.5 0
-13.8 4.8 0
-13.8 5.1 0
-13.8 5.4 0
-13.8 5.7 0
-13.8 6 0
-13.8 6.3 0
-13.8 6.6 0
-13.8 6.9 0
-13.8 7.2 0
-13.8 7.5 0
-13.8 7.8 0
-13.8 8.1 0
-13.8 8.4 0
-13.8 8.7 0
-13.8 9 0
-13.8 9.3 0
-13.8 9.6 0
-13.8 9.9 0
-13.8 10.2 0
-13.8 10.5 0
-13.8 10.8 0
-13.8 11.1 0
-13.8 11.4 0
-13.8 11.7 0
-13.8 12 0
-13.8 12.3 0
-13.8 12.6 0
-13.8 12.9 0
-13.8 13.2 0
-13.8 13.5 0
-13.8 13.8 0
-13.8 14.1 0
-13.8 14.4 0
-13.8 14.7 0
-13.8 15 0
-13.5 -15 0
-13.5 -14.7 0
-13.5 -14.4 0
-13.5 -14.1 0
-13.5 -13.8 0
-13.5 -13.5 0
-13.5 -13.2 0
-13.5 -12.9 0
-13.5 -12.6 0
-13.5 -12.3 0
-13.5 -12 0
-13.5 -11.7 0
-13.5 -11.4 0
-13.5 -11.1 0
-13.5 -10.8 0
-13.5 -10.5 0
-13.5 -10.2 0
-13.5 -9.9 0
-13.5 -9.6 0
-13.5 -9.3 0
-13.5 -9 0
-13.5 -8.7 0
-13.5 -8.4 0
-13.5 -8.1 0
-13.5 -7.8 0
-13.5 -7.5 0
-13.5 -7.2 0
-13.5 -6.9 0
-13.5 -6.6 0
-13.5 -6.3 0
-13.5 -6 0
-13.5 -5.7 0
-13.5 -5.4 0
-13.5 -5.1 0
-13.5 -4.8 0
-13.5 -4.5 0
-13.5 -4.2 0
-13.5 -3.9 0
-13.5 -3.6 0
-13.5 -3.3 0
-13.5 -3 0
-13.5 -2.7 0
-13.5 -2.4 0
-13.5 -2.1 0
-13.5 -1.8 0
-13.5 -1.5 0
-13.5 -1.2 0
-13.5 -0.9 0
-13.5 -0.6 0
-13.5 -0.3 0
-13.5 0 0
-13.5 0.3 0
-13.5 0.6 0
-13.5 0.9 0
-13.5 1.2 0
-13.5 1.5 0
-13.5 1.8 0
-13.5 2.1 0
-13.5 2.4 0
-13.5 2.7 0
-13.5 3 0
-13.5 3.3 0
-13.5 3.6 0
-13.5 3.9 0
-13.5 4.2 0
-13.5 4.5 0
-13.5 4.8 0
-13.5 5.1 0
-13.5 5.4 0
-13.5 5.7 0
-13.5 6 0
-13.5 6.3 0
-13.5 6.6 0
-13.5 6.9 0
-13.5 7.2 0
-13.5 7.5 0
-13.5 7.8 0
-13.5 8.1 0
-13.5 8.4 0
-13.5 8.7 0
-13.5 9 0
-13.5 9.3 0
-13.5 9.6 0
-13.5 9.9 0
-13.5 10.2 0
-13.5 10.5 0
-13.5 10.8 0
-13.5 11.1 0
-13.5 11.4 0
-13.5 11.7 0
-13.5 12 0
-13.5 12.3 0
-13.5 12.6 0
-13.5 12.9 0
-13.5 13.2 0
-13.5 13.5 0
-13.5 13.8 0
-13.5 14.1 0
-13.5 14.4 0
-13.5 14.7 0
-13.5 15 0
-13.2 -15 0
-13.2 -14.7 0
-13.2 -14.4 0
-13.2 -14.1 0
-13.2 -13.8 0
-13.2 -13.5 0
-13.2 -13.2 0
-13.2 -12.9 0
-13.2 -12.6 0
-13.2 -12.3 0
-13.2 -12 0
-13.2 -11.7 0
-13.2 -11.4 0
-13.2 -11.1 0
-13.2 -10.8 0
-13.2 -10.5 0
-13.2 -10.2 0
-13.2 -9.9 0
-13.2 -9.6 0
-13.2 -9.3 0
-13.2 -9 0
-13.2 -8.7 0
-13.2 -8.4 0
-13.2 -8.1 0
-13.2 -7.8 0
-13.2 -7.5 0
-13.2 -7.2 0
-13.2 -6.9 0
-13.2 -6.6 0
-13.2 -6.3 0
-13.2 -6 0
-13.2 -5.7 0
-13.2 -5.4 0
-13.2 -5.1 0
-13.2 -4.8 0
-13.2 -4.5 0
-13.2 -4.2 0
-13.2 -3.9 0
-13.2 -3.6 0
-13.2 -3.3 0
-13.2 -3 0
-13.2 -2.7 0
-13.2 -2.4 0
-13.2 -2.1 0
-13.2 -1.8 0
-13.2 -1.5 0
-13.2 -1.2 0
-13.2 -0.9 0
-13.2 -0.6 0
-13.2 -0.3 0
-13.2 0 0
-13.2 0.3 0
-13.2 0.6 0
-13.2 0.9 0
-13.2 1.2 0
-13.2 1.5 0
-13.2 1.8 0
-13.2 2.1 0
-13.2 2.4 0
-13.2 2.7 0
-13.2 3 0
-13.2 3.3 0
-13.2 3.6 0
-13.2 3.9 0
-13.2 4.2 0
-13.2 4.5 0
-13.2 4.8 0
-13.2 5.1 0
-13.2 5.4 0
-13.2 5.7 0
-13.2 6 0
-13.2 6.3 0
-13.2 6.6 0
-13.2 6.9 0
-13.2 7.2 0
-13.2 7.5 0
-13.2 7.8 0
-13.2 8.1 0
-13.2 8.4 0
-13.2 8.7 0
-13.2 9 0
-13.2 9.3 0
-13.2 9.6 0
-13.2 9.9 0
-13.2 10.2 0
-13.2 10.5 0
-13.2 10.8 0
-13.2 11.1 0
-13.2 11.4 0
-13.2 11.7 0
-13.2 12 0
-13.2 12.3 0
-13.2 12.6 0
-13.2 12.9 0
-13.2 13.2 0
-13.2 13.5 0
-13.2 13.8 0
-13.2 14.1 0
-13.2 14.4 0
-13.2 14.7 0
-13.2 15 0
-12.9 -15 0
-12.9 -14.7 0
-12.9 -14.4 0
-12.9 -14.1 0
-12.9 -13.8 0
-12.9 -13.5 0
-12.9 -13.2 0
-12.9 -12.9 0
-12.9 -12.6 0
-12.9 -12.3 0
-12.9 -12 0
-12.9 -11.7 0
-12.9 -11.4 0
-12.9 -11.1 0
-12.9 -10.8 0
-12.9 -10.5 0
-12.9 -10.2 0
-12.9 -9.9 0
-12.9 -9.6 0
-12.9 -9.3 0
-12.9 -9 0
-12.9 -8.7 0
-12.9 -8.4 0
-12.9 -8.1 0
-12.9 -7.8 0
-12.9 -7.5 0
-12.9 -7.2 0
-12.9 -6.9 0
-12.9 -6.6 0
-12.9 -6.3 0
-12.9 -6 0
-12.9 -5.7 0
-12.9 -5.4 0
-12.9 -5.1 0
-12.9 -4.8 0
-12.9 -4.5 0
-12.9 -4.2 0
-12.9 -3.9 0
-12.9 -3.6 0
-12.9 -3.3 0
-12.9 -3 0
-12.9 -2.7 0
-12.9 -2.4 0
-12.9 -2.1 0
-12.9 -1.8 0
-12.9 -1.5 0
-12.9 -1.2 0
-12.9 -0.9 0
-12.9 -0.6 0
-12.9 -0.3 0
-12.9 0 0
-12.9 0.3 0
-12.9 0.6 0
-12.9 0.9 0
-12.9 1.2 0
-12.9 1.5 0
-12.9 1.8 0
-12.9 2.1 0
-12.9 2.4 0
-12.9 2.7 0
-12.9 3 0
-12.9 3.3 0
-12.9 3.6 0
-12.9 3.9 0
-12.9 4.2 0
-12.9 4.5 0
-12.9 4.8 0
-12.9 5.1 0
-12.9 5.4 0
-12.9 5.7 0
-12.9 6 0
-12.9 6.3 0
-12.9 6.6 0
-12.9 6.9 0
-12.9 7.2 0
-12.9 7.5 0
-12.9 7.8 0
-12.9 8.1 0
-12.9 8.4 0
-12.9 8.7 0
-12.9 9 0
[...]
            <PointData>
                <DataArray type="Float64" Name="c1" format="ascii">
0.00224558 0.0022481 0.00225567 0.00226827 0.00228591 0.00230855 0.00233618 0.00236878 0.00240631 0.00244874 0.00249601 0.00254807 0.00260485 0.00266629 0.0027323 0.00280277 0.00287759 0.00295665 0.00303978 0.00312683 0.00321762 0.00331195 0.0034096 0.00351031 0.00361382 0.00371984 0.00382804 0.00393808 0.00404959 0.00416215 0.00427536 0.00438877 0.00450188 0.00461422 0.00472525 0.00483446 0.00494129 0.00504518 0.00514557 0.00524191 0.00533362 0.00542016 0.00550101 0.00557565 0.00564361 0.00570443 0.00575771 0.00580311 0.0058403 0.00586904 0.00588913 0.00590045 0.00590294 0.00589658 0.00588146 0.00585769 0.00582547 0.00578505 0.00573675 0.00568092 0.00561797 0.00554836 0.00547256 0.0053911 0.00530452 0.00521336 0.00511821 0.00501964 0.00491821 0.00481451 0.00470909 0.0046025 0.00449527 0.00438791 0.00428092 0.00417476 0.00406988 0.00396668 0.00386556 0.00376688 0.00367097 0.00357814 0.00348868 0.00340285 0.00332088 0.00324299 0.00316937 0.00310019 0.0030356 0.00297573 0.00292072 0.00287067 0.00282566 0.00278577 0.00275108 0.00272163 0.00269748 0.00267866 0.00266519 0.00265711 0.00265441 
0.00224732 0.00224985 0.00225743 0.00227007 0.00228774 0.00231044 0.00233814 0.00237081 0.00240843 0.00245096 0.00249834 0.00255053 0.00260746 0.00266906 0.00273524 0.0028059 0.00288093 0.0029602 0.00304357 0.00313088 0.00322194 0.00331657 0.00341452 0.00351556 0.00361942 0.0037258 0.00383438 0.00394481 0.00405673 0.00416973 0.00428339 0.00439724 0.00451083 0.00462364 0.00473516 0.00484485 0.00495217 0.00505655 0.00515742 0.00525422 0.00534639 0.00543337 0.00551463 0.00558966 0.00565797 0.00571912 0.00577269 0.00581832 0.00585571 0.00588461 0.00590481 0.00591619 0.00591868 0.00591228 0.00589706 0.00587315 0.00584074 0.00580009 0.00575151 0.00569537 0.00563207 0.00556208 0.00548588 0.00540399 0.00531695 0.00522534 0.00512971 0.00503065 0.00492874 0.00482455 0.00471865 0.00461158 0.00450388 0.00439607 0.00428864 0.00418205 0.00407675 0.00397315 0.00387165 0.0037726 0.00367635 0.0035832 0.00349344 0.00340732 0.00332509 0.00324694 0.00317309 0.00310369 0.00303891 0.00297887 0.0029237 0.0028735 0.00282836 0.00278836 0.00275357 0.00272405 0.00269983 0.00268095 0.00266745 0.00265935 0.00265664 
0.00225254 0.00225509 0.00226272 0.00227544 0.00229324 0.00231609 0.00234399 0.00237689 0.00241478 0.00245762 0.00250535 0.00255793 0.00261529 0.00267736 0.00274406 0.00281528 0.00289093 0.00297086 0.00305495 0.00314302 0.0032349 0.0033304 0.00342928 0.0035313 0.00363619 0.00374366 0.00385339 0.00396502 0.00407818 0.00419248 0.00430747 0.0044227 0.00453769 0.00465194 0.00476491 0.00487607 0.00498486 0.0050907 0.00519301 0.00529122 0.00538476 0.00547306 0.00555557 0.00563177 0.00570115 0.00576327 0.0058177 0.00586408 0.00590207 0.00593143 0.00595195 0.0059635 0.00596601 0.00595948 0.00594398 0.00591964 0.00588666 0.00584531 0.0057959 0.00573881 0.00567447 0.00560333 0.0055259 0.00544271 0.00535432 0.0052613 0.00516425 0.00506374 0.00496036 0.00485471 0.00474736 0.00463886 0.00452975 0.00442056 0.00431179 0.00420391 0.00409736 0.00399257 0.00388992 0.00378979 0.00369251 0.00359838 0.0035077 0.00342072 0.00333768 0.00325879 0.00318424 0.00311421 0.00304884 0.00298827 0.00293262 0.00288199 0.00283646 0.00279613 0.00276105 0.00273128 0.00270687 0.00268784 0.00267423 0.00266606 0.00266333 
0.00226122 0.0022638 0.00227152 0.00228439 0.00230239 0.0023255 0.00235372 0.00238701 0.00242535 0.00246869 0.002517 0.00257023 0.00262831 0.00269117 0.00275874 0.0028309 0.00290757 0.00298861 0.00307389 0.00316324 0.00325649 0.00335344 0.00345387 0.00355753 0.00366415 0.00377345 0.00388509 0.00399872 0.00411397 0.00423043 0.00434766 0.00446519 0.00458254 0.0046992 0.00481461 0.00492823 0.00503948 0.00514777 0.00525251 0.00535309 0.00544893 0.00553944 0.00562405 0.00570221 0.00577341 0.00583717 0.00589305 0.00594067 0.00597968 0.00600982 0.00603088 0.00604272 0.00604526 0.00603851 0.00602253 0.00599747 0.00596354 0.005921 0.00587019 0.00581151 0.0057454 0.00567233 0.00559283 0.00550746 0.0054168 0.00532143 0.00522197 0.00511902 0.00501319 0.00490509 0.0047953 0.00468439 0.00457293 0.00446144 0.00435043 0.00424038 0.00413175 0.00402495 0.0039204 0.00381844 0.00371943 0.00362368 0.00353146 0.00344305 0.00335866 0.00327852 0.00320282 0.00313172 0.00306537 0.00300392 0.00294746 0.00289611 0.00284995 0.00280906 0.0027735 0.00274332 0.00271858 0.0026993 0.00268551 0.00267723 0.00267447 
0.00227334 0.00227596 0.0022838 0.00229687 0.00231515 0.00233863 0.0023673 0.00240113 0.00244009 0.00248416 0.00253328 0.00258741 0.0026465 0.00271047 0.00277924 0.00285274 0.00293084 0.00301343 0.00310038 0.00319152 0.00328669 0.00338568 0.00348828 0.00359425 0.00370331 0.00381517 0.0039295 0.00404595 0.00416414 0.00428364 0.00440403 0.00452481 0.00464549 0.00476554 0.00488441 0.00500151 0.00511624 0.005228 0.00533617 0.00544012 0.00553922 0.00563287 0.00572046 0.00580141 0.00587519 0.00594128 0.00599922 0.00604859 0.00608906 0.00612031 0.00614214 0.00615438 0.00615697 0.0061499 0.00613325 0.00610716 0.00607187 0.00602764 0.00597485 0.00591391 0.00584528 0.00576947 0.00568705 0.00559858 0.00550469 0.00540599 0.00530312 0.00519672 0.00508742 0.00497585 0.00486262 0.00474832 0.00463352 0.00451878 0.00440461 0.00429151 0.00417994 0.00407033 0.00396308 0.00385857 0.00375713 0.00365908 0.00356471 0.00347428 0.00338801 0.00330612 0.00322879 0.0031562 0.00308848 0.00302578 0.00296819 0.00291583 0.00286878 0.00282711 0.00279087 0.00276013 0.00273493 0.00271529 0.00270125 0.00269281 0.00269 
0.00228885 0.00229152 0.00229952 0.00231285 0.00233149 0.00235545 0.0023847 0.00241922 0.00245898 0.00250397 0.00255413 0.00260943 0.00266981 0.00273521 0.00280555 0.00288074 0.00296069 0.00304528 0.00313438 0.00322783 0.00332547 0.00342711 0.00353252 0.00364146 0.00375366 0.00386884 0.00398666 0.00410675 0.00422875 0.00435221 0.00447669 0.00460169 0.0047267 0.00485118 0.00497453 0.00509616 0.00521544 0.00533173 0.00544438 0.00555272 0.00565609 0.00575384 0.00584533 0.00592994 0.0060071 0.00607624 0.00613688 0.00618857 0.00623093 0.00626365 0.00628648 0.00629926 0.00630191 0.00629443 0.00627689 0.00624946 0.00621237 0.00616594 0.00611054 0.00604663 0.0059747 0.00589531 0.00580905 0.00571653 0.00561842 0.00551536 0.00540805 0.00529714 0.00518331 0.00506722 0.0049495 0.00483079 0.00471166 0.0045927 0.00447443 0.00435737 0.00424199 0.00412872 0.00401799 0.00391017 0.00380559 0.00370459 0.00360743 0.00351439 0.00342569 0.00334153 0.00326212 0.0031876 0.00311812 0.00305381 0.00299478 0.00294112 0.00289291 0.00285023 0.00281313 0.00278167 0.00275587 0.00273577 0.0027214 0.00271277 0.0027099 
0.00230771 0.00231044 0.00231863 0.00233227 0.00235136 0.00237589 0.00240585 0.00244121 0.00248196 0.00252808 0.00257951 0.00263624 0.0026982 0.00276534 0.00283759 0.00291486 0.00299708 0.00308412 0.00317585 0.00327214 0.00337282 0.00347769 0.00358654 0.00369915 0.00381523 0.00393448 0.00405659 0.00418119 0.00430788 0.00443623 0.00456577 0.004696 0.00482637 0.00495633 0.00508525 0.00521251 0.00533744 0.00545938 0.0055776 0.00569142 0.00580012 0.005903 0.00599937 0.00608856 0.00616993 0.00624291 0.00630693 0.00636153 0.00640627 0.00644082 0.00646491 0.00647837 0.0064811 0.00647309 0.00645444 0.00642532 0.00638598 0.00633678 0.00627812 0.00621049 0.00613443 0.00605055 0.00595949 0.00586191 0.00575852 0.00565004 0.00553717 0.00542066 0.00530119 0.00517949 0.00505621 0.00493201 0.00480752 0.00468333 0.00455999 0.00443804 0.00431795 0.00420019 0.00408516 0.00397326 0.00386482 0.00376017 0.0036596 0.00356335 0.00347166 0.00338473 0.00330275 0.00322587 0.00315423 0.00308796 0.00302715 0.0029719 0.00292229 0.00287838 0.00284022 0.00280786 0.00278134 0.00276068 0.00274591 0.00273705 0.00273409 
0.00232984 0.00233265 0.00234106 0.00235508 0.00237469 0.0023999 0.0024307 0.00246706 0.00250897 0.00255641 0.00260935 0.00266776 0.00273159 0.00280079 0.0028753 0.00295504 0.00303994 0.00312988 0.00322474 0.00332439 0.00342867 0.00353739 0.00365035 0.0037673 0.00388799 0.00401212 0.00413935 0.00426932 0.00440162 0.00453582 0.00467143 0.00480792 0.00494474 0.00508128 0.00521691 0.00535096 0.00548271 0.00561146 0.00573643 0.00585688 0.00597204 0.00608114 0.00618343 0.00627818 0.00636469 0.00644233 0.00651047 0.0065686 0.00661625 0.00665304 0.00667867 0.00669295 0.00669577 0.00668713 0.00666712 0.00663594 0.00659386 0.00654128 0.00647864 0.00640648 0.0063254 0.00623607 0.00613917 0.00603545 0.00592567 0.00581061 0.00569104 0.00556774 0.00544148 0.005313 0.00518303 0.00505224 0.0049213 0.00479084 0.00466143 0.00453361 0.0044079 0.00428476 0.00416461 0.00404784 0.0039348 0.00382582 0.00372117 0.00362112 0.00352588 0.00343566 0.00335063 0.00327095 0.00319675 0.00312815 0.00306524 0.00300811 0.00295683 0.00291146 0.00287205 0.00283864 0.00281126 0.00278994 0.0027747 0.00276555 0.0027625 
0.00235518 0.00235807 0.00236674 0.00238119 0.00240141 0.0024274 0.00245916 0.00249667 0.00253992 0.00258889 0.00264357 0.00270391 0.0027699 0.00284148 0.0029186 0.0030012 0.00308919 0.00318249 0.00328097 0.00338452 0.00349298 0.00360616 0.00372388 0.0038459 0.00397196 0.00410176 0.00423496 0.00437121 0.00451008 0.00465112 0.00479384 0.00493768 0.00508207 0.00522637 0.0053699 0.00551196 0.00565178 0.00578858 0.00592155 0.00604987 0.0061727 0.0062892 0.00639854 0.00649992 0.00659256 0.00667575 0.00674883 0.00681118 0.00686231 0.00690178 0.00692925 0.00694452 0.00694745 0.00693805 0.00691642 0.00688276 0.00683741 0.00678078 0.00671338 0.00663582 0.00654875 0.0064529 0.00634906 0.00623803 0.00612065 0.00599778 0.00587026 0.00573894 0.00560464 0.00546817 0.0053303 0.00519176 0.00505324 0.00491541 0.00477888 0.0046442 0.00451191 0.00438248 0.00425635 0.00413391 0.00401551 0.00390149 0.00379211 0.00368763 0.00358827 0.00349423 0.00340568 0.00332276 0.0032456 0.0031743 0.00310896 0.00304965 0.00299645 0.0029494 0.00290854 0.00287391 0.00284555 0.00282347 0.00280768 0.00279821 0.00279505 
0.00238364 0.00238663 0.00239559 0.00241052 0.00243143 0.00245831 0.00249115 0.00252996 0.00257472 0.00262543 0.00268207 0.00274461 0.00281305 0.00288733 0.00296741 0.00305324 0.00314475 0.00324186 0.00334447 0.00345245 0.00356567 0.00368395 0.00380711 0.00393491 0.00406711 0.00420341 0.00434347 0.00448692 0.00463334 0.00478227 0.00493318 0.00508553 0.00523867 0.00539196 0.00554467 0.00569603 0.00584524 0.00599144 0.00613376 0.00627128 0.0064031 0.00652827 0.00664589 0.00675506 0.00685493 0.00694467 0.00702355 0.0070909 0.00714613 0.00718876 0.00721842 0.00723485 0.00723792 0.00722762 0.00720406 0.00716749 0.00711827 0.00705687 0.00698386 0.00689991 0.00680578 0.00670228 0.00659027 0.00647066 0.00634438 0.00621237 0.00607556 0.00593488 0.00579122 0.00564545 0.00549841 0.00535088 0.00520359 0.00505725 0.0049125 0.00476992 0.00463005 0.0044934 0.0043604 0.00423146 0.00410693 0.00398713 0.00387234 0.00376282 0.00365876 0.00356037 0.0034678 0.00338119 0.00330066 0.0032263 0.0031582 0.00309643 0.00304104 0.00299208 0.00294958 0.00291358 0.0028841 0.00286115 0.00284475 0.00283491 0.00283162 
0.00241512 0.00241821 0.0024275 0.00244298 0.00246464 0.00249251 0.00252656 0.00256682 0.00261327 0.00266591 0.00272474 0.00278975 0.00286091 0.0029382 0.0030216 0.00311106 0.00320651 0.0033079 0.00341513 0.00352809 0.00364666 0.00377067 0.00389996 0.00403429 0.00417342 0.00431706 0.00446489 0.00461651 0.00477151 0.00492941 0.00508967 0.00525171 0.00541487 0.00557845 0.00574169 0.00590375 0.00606377 0.00622082 0.00637394 0.00652212 0.00666436 0.00679961 0.00692686 0.00704511 0.00715339 0.00725079 0.00733646 0.00740964 0.00746968 0.00751602 0.00754823 0.00756603 0.00756926 0.00755791 0.0075321 0.00749212 0.00743836 0.00737137 0.00729179 0.0072004 0.00709802 0.00698559 0.00686408 0.0067345 0.00659789 0.00645529 0.00630774 0.00615625 0.00600181 0.00584535 0.00568778 0.00552994 0.00537262 0.00521656 0.00506243 0.00491086 0.00476239 0.00461754 0.00447676 0.00434046 0.00420899 0.00408268 0.0039618 0.00384659 0.00373725 0.00363397 0.00353689 0.00344614 0.00336183 0.00328404 0.00321285 0.00314831 0.00309048 0.00303938 0.00299505 0.00295751 0.00292678 0.00290287 0.00288578 0.00287553 0.00287211 
0.00244951 0.00245272 0.00246236 0.00247844 0.00250094 0.00252989 0.00256529 0.00260714 0.00265545 0.00271022 0.00277147 0.00283919 0.00291336 0.00299399 0.00308105 0.00317452 0.00327434 0.00338046 0.00349282 0.00361132 0.00373583 0.00386623 0.00400234 0.00414396 0.00429084 0.00444271 0.00459923 0.00476003 0.00492467 0.00509267 0.00526349 0.00543649 0.005611 0.00578627 0.00596149 0.00613575 0.00630812 0.00647759 0.00664309 0.00680352 0.00695775 0.00710463 0.00724301 0.00737176 0.00748979 0.00759606 0.00768961 0.00776958 0.00783521 0.00788586 0.00792106 0.00794046 0.00794388 0.0079313 0.00790288 0.00785891 0.00779988 0.00772639 0.00763919 0.00753914 0.00742721 0.00730444 0.00717194 0.00703085 0.00688234 0.00672757 0.00656769 0.00640382 0.00623705 0.0060684 0.00589885 0.0057293 0.00556061 0.00539356 0.00522885 0.00506712 0.00490897 0.00475491 0.00460541 0.00446087 0.00432165 0.00418806 0.00406038 0.00393883 0.00382361 0.00371489 0.0036128 0.00351746 0.00342896 0.00334737 0.00327276 0.00320516 0.00314463 0.00309117 0.00304482 0.00300558 0.00297347 0.00294849 0.00293064 0.00291993 0.00291636 
0.00248669 0.00249003 0.00250006 0.00251678 0.0025402 0.00257033 0.00260719 0.00265078 0.00270112 0.00275823 0.00282211 0.00289279 0.00297027 0.00305454 0.00314562 0.00324347 0.00334809 0.00345942 0.00357741 0.003702 0.00383307 0.00397051 0.00411416 0.00426383 0.0044193 0.00458029 0.00474648 0.00491749 0.0050929 0.0052722 0.00545482 0.00564013 0.00582741 0.00601586 0.00620461 0.00639269 0.00657909 0.00676268 0.0069423 0.00711673 0.00728469 0.0074449 0.00759607 0.0077369 0.00786617 0.00798269 0.00808536 0.00817318 0.00824528 0.00830095 0.00833961 0.00836087 0.00836451 0.00835052 0.00831907 0.0082705 0.00820535 0.00812433 0.0080283 0.00791825 0.00779529 0.0076606 0.00751546 0.00736115 0.007199 0.00703031 0.00685636 0.0066784 0.00649763 0.00631517 0.00613207 0.00594933 0.00576785 0.00558844 0.00541187 0.0052388 0.00506984 0.00490552 0.00474631 0.00459262 0.0044448 0.00430316 0.00416796 0.00403941 0.00391771 0.00380299 0.00369539 0.003595 0.00350189 0.00341613 0.00333777 0.00326682 0.00320333 0.00314729 0.00309872 0.00305762 0.003024 0.00299786 0.00297918 0.00296798 0.00296424 
0.00252652 0.00253 0.00254045 0.00255787 0.00258228 0.00261369 0.00265212 0.0026976 0.00275013 0.00280977 0.00287651 0.0029504 0.00303146 0.00311969 0.00321513 0.00331776 0.00342759 0.00354459 0.00366873 0.00379996 0.0039382 0.00408335 0.00423527 0.00439379 0.0045587 0.00472974 0.0049066 0.00508891 0.00527624 0.00546808 0.00566385 0.00586289 0.00606444 0.00626766 0.00647162 0.00667527 0.0068775 0.00707709 0.00727274 0.00746309 0.00764671 0.00782216 0.00798797 0.00814267 0.00828486 0.00841317 0.00852634 0.00862322 0.00870282 0.00876428 0.00880696 0.00883038 0.0088343 0.00881868 0.00878373 0.00872983 0.00865762 0.00856791 0.00846169 0.00834011 0.00820445 0.00805607 0.00789643 0.00772699 0.00754927 0.00736472 0.0071748 0.00698088 0.00678429 0.00658625 0.00638794 0.00619039 0.00599458 0.0058014 0.00561162 0.00542594 0.005245 0.00506932 0.00489939 0.0047356 0.00457832 0.00442783 0.00428437 0.00414816 0.00401936 0.00389809 0.00378447 0.00367857 0.00358045 0.00349015 0.0034077 0.00333311 0.0032664 0.00320756 0.00315659 0.00311348 0.00307822 0.00305081 0.00303123 0.00301949 0.00301558 
0.00256885 0.00257248 0.00258338 0.00260156 0.00262703 0.00265981 0.00269994 0.00274743 0.00280233 0.00286467 0.0029345 0.00301185 0.00309675 0.00318926 0.00328939 0.00339718 0.00351264 0.00363578 0.00376658 0.00390502 0.00405104 0.00420457 0.00436549 0.00453366 0.00470889 0.00489094 0.00507951 0.00527424 0.0054747 0.00568039 0.00589072 0.00610499 0.00632242 0.00654212 0.00676308 0.0069842 0.00720424 0.00742188 0.00763566 0.00784407 0.0080455 0.00823832 0.00842085 0.00859142 0.00874841 0.00889026 0.00901552 0.00912285 0.00921109 0.00927926 0.00932658 0.00935252 0.00935677 0.0093393 0.00930031 0.00924028 0.00915992 0.00906018 0.00894223 0.00880738 0.00865712 0.00849304 0.0083168 0.0081301 0.00793464 0.0077321 0.00752409 0.00731215 0.00709775 0.00688225 0.00666689 0.00645282 0.00624108 0.00603259 0.00582818 0.00562858 0.00543441 0.00524624 0.00506454 0.0048897 0.00472206 0.0045619 0.00440945 0.00426489 0.00412837 0.00399999 0.00387984 0.00376797 0.00366442 0.00356921 0.00348235 0.00340384 0.00333365 0.00327179 0.00321822 0.00317294 0.00313592 0.00310715 0.00308661 0.00307429 0.00307018 
0.00261353 0.00261732 0.0026287 0.00264768 0.00267428 0.00270853 0.00275046 0.00280011 0.00285753 0.00292277 0.00299588 0.00307692 0.00316595 0.00326303 0.0033682 0.00348153 0.00360304 0.00373277 0.00387074 0.00401695 0.00417137 0.00433396 0.00450463 0.00468327 0.00486971 0.00506374 0.00526508 0.00547339 0.00568825 0.00590916 0.00613551 0.00636661 0.00660163 0.00683964 0.00707956 0.0073202 0.00756022 0.00779815 0.00803239 0.00826123 0.00848287 0.00869544 0.00889703 0.00908574 0.00925968 0.00941707 0.00955621 0.00967556 0.00977377 0.00984969 0.0099024 0.00993127 0.00993594 0.00991634 0.00987272 0.00980562 0.00971587 0.00960459 0.00947311 0.009323 0.00915599 0.00897392 0.00877872 0.00857234 0.00835674 0.00813381 0.00790537 0.00767316 0.00743878 0.00720373 0.00696938 0.00673694 0.00650753 0.00628213 0.00606159 0.00584667 0.00563801 0.00543617 0.00524161 0.00505471 0.00487581 0.00470515 0.00454295 0.00438936 0.00424449 0.00410844 0.00398125 0.00386296 0.00375358 0.00365309 0.0035615 0.00347876 0.00340486 0.00333976 0.00328342 0.00323582 0.00319692 0.00316669 0.00314511 0.00313217 0.00312786 
0.00266038 0.00266434 0.00267623 0.00269606 0.00272386 0.00275966 0.0028035 0.00285544 0.00291553 0.00298385 0.00306045 0.00314542 0.00323884 0.00334078 0.00345133 0.00357055 0.00369853 0.00383531 0.00398095 0.00413549 0.00429893 0.00447126 0.00465243 0.00484236 0.00504092 0.00524793 0.00546313 0.00568622 0.00591678 0.00615434 0.00639827 0.00664788 0.00690231 0.00716059 0.00742157 0.00768397 0.00794632 0.00820703 0.0084643 0.00871622 0.00896075 0.00919576 0.00941907 0.00962847 0.0098218 0.00999699 0.0101521 0.0102853 0.010395 0.0104799 0.0105388 0.0105711 0.0105763 0.0105543 0.0105054 0.0104301 0.0103296 0.010205 0.0100579 0.00989028 0.00970403 0.00950136 0.0092845 0.00905572 0.00881725 0.00857126 0.0083198 0.00806482 0.00780809 0.00755126 0.00729579 0.00704302 0.0067941 0.00655008 0.00631184 0.00608015 0.00585566 0.00563892 0.00543038 0.00523042 0.00503933 0.00485733 0.00468461 0.0045213 0.00436747 0.00422318 0.00408845 0.00396328 0.00384765 0.00374153 0.00364488 0.00355765 0.00347979 0.00341124 0.00335195 0.00330188 0.00326097 0.0032292 0.00320652 0.00319293 0.0031884 
0.00270921 0.00271335 0.00272578 0.00274651 0.00277557 0.002813 0.00285886 0.00291322 0.00297613 0.00304769 0.00312798 0.00321711 0.00331517 0.00342226 0.0035385 0.00366398 0.00379882 0.0039431 0.00409692 0.00426034 0.00443341 0.00461616 0.00480858 0.00501064 0.00522224 0.00544324 0.00567342 0.00591252 0.00616014 0.00641582 0.00667896 0.00694886 0.00722463 0.00750527 0.00778957 0.00807615 0.00836344 0.00864965 0.00893281 0.00921077 0.00948121 0.00974169 0.0099897 0.0102227 0.0104382 0.0106338 0.0108072 0.0109563 0.0110793 0.0111745 0.0112408 0.0112771 0.011283 0.0112582 0.0112032 0.0111186 0.0110056 0.0108657 0.0107007 0.0105128 0.0103045 0.0100782 0.00983662 0.00958233 0.00931793 0.0090459 0.00876855 0.00848806 0.00820638 0.00792532 0.00764647 0.00737123 0.00710086 0.00683642 0.00657882 0.00632885 0.00608715 0.00585426 0.0056306 0.00541653 0.00521231 0.00501812 0.00483412 0.00466039 0.00449697 0.00434388 0.00420111 0.00406862 0.00394635 0.00383425 0.00373223 0.00364024 0.00355818 0.00348598 0.00342356 0.00337088 0.00332785 0.00329444 0.00327061 0.00325632 0.00325156 