<?xml version="1.0"?>
<VTKFile type="StructuredGrid" version="0.1">
    <StructuredGrid WholeExtent="0 100 0 100 0 0">
        <Piece Extent="0 100 0 100 0 0">
            <Points>
                <DataArray type="Float64" NumberOfComponents="3" format="ascii">
-15 -15 0
-15 -14.7 0
-15 -14.4 0
-15 -14.1 0
-15 -13.8 0
-15 -13.5 0
-15 -13.2 0
-15 -12.9 0
-15 -12.6 0
-15 -12.3 0
-15 -12 0
-15 -11.7 0
-15 -11.4 0
-15 -11.1 0
-15 -10.8 0
-15 -10.5 0
-15 -10.2 0
-15 -9.9 0
-15 -9.6 0
-15 -9.3 0
-15 -9 0
-15 -8.7 0
-15 -8.4 0
-15 -8.1 0
-15 -7.8 0
-15 -7.5 0
-15 -7.2 0
-15 -6.9 0
-15 -6.6 0
-15 -6.3 0
-15 -6 0
-15 -5.7 0
-15 -5.4 0
-15 -5.1 0
-15 -4.8 0
-15 -4.5 0
-15 -4.2 0
-15 -3.9 0
-15 -3.6 0
-15 -3.3 0
-15 -3 0
-15 -2.7 0
-15 -2.4 0
-15 -2.1 0
-15 -1.8 0
-15 -1.5 0
-15 -1.2 0
-15 -0.9 0
-15 -0.6 0
-15 -0.3 0
-15 0 0
-15 0.3 0
-15 0.6 0
-15 0.9 0
-15 1.2 0
-15 1.5 0
-15 1.8 0
-15 2.1 0
-15 2.4 0
-15 2.7 0
-15 3 0
-15 3.3 0
-15 3.6 0
-15 3.9 0
-15 4.2 0
-15 4.5 0
-15 4.8 0
-15 5.1 0
-15 5.4 0
-15 5.7 0
-15 6 0
-15 6.3 0
-15 6.6 0
-15 6.9 0
-15 7.2 0
-15 7.5 0
-15 7.8 0
-15 8.1 0
-15 8.4 0
-15 8.7 0
-15 9 0
-15 9.3 0
-15 9.6 0
-15 9.9 0
-15 10.2 0
-15 10.5 0
-15 10.8 0
-15 11.1 0
-15 11.4 0
-15 11.7 0
-15 12 0
-15 12.3 0
-15 12.6 0
-15 12.9 0
-15 13.2 0
-15 13.5 0
-15 13.8 0
-15 14.1 0
-15 14.4 0
-15 14.7 0
-15 15 0
-14.7 -15 0
-14.7 -14.7 0
-14.7 -14.4 0
-14.7 -14.1 0
-14.7 -13.8 0
-14.7 -13.5 0
-14.7 -13.2 0
-14.7 -12.9 0
-14.7 -12.6 0
-14.7 -12.3 0
-14.7 -12 0
-14.7 -11.7 0
-14.7 -11.4 0
-14.7 -11.1 0
-14.7 -10.8 0
-14.7 -10.5 0
-14.7 -10.2 0
-14.7 -9.9 0
-14.7 -9.6 0
-14.7 -9.3 0
-14.7 -9 0
-14.7 -8.7 0
-14.7 -8.4 0
-14.7 -8.1 0
-14.7 -7.8 0
-14.7 -7.5 0
-14.7 -7.2 0
-14.7 -6.9 0
-14.7 -6.6 0
-14.7 -6.3 0
-14.7 -6 0
-14.7 -5.7 0
-14.7 -5.4 0
-14.7 -5.1 0
-14.7 -4.8 0
-14.7 -4.5 0
-14.7 -4.2 0
-14.7 -3.9 0
-14.7 -3.6 0
-14.7 -3.3 0
-14.7 -3 0
-14.7 -2.7 0
-14.7 -2.4 0
-14.7 -2.1 0
-14.7 -1.8 0
-14.7 -1.5 0
-14.7 -1.2 0
-14.7 -0.9 0
-14.7 -0.6 0
-14.7 -0.3 0
-14.7 0 0
-14.7 0.3 0
-14.7 0.6 0
-14.7 0.9 0
-14.7 1.2 0
-14.7 1.5 0
-14.7 1.8 0
-14.7 2.1 0
-14.7 2.4 0
-14.7 2.7 0
-14.7 3 0
-14.7 3.3 0
-14.7 3.6 0
-14.7 3.9 0
-14.7 4.2 0
-14.7 4.5 0
-14.7 4.8 0
-14.7 5.1 0
-14.7 5.4 0
-14.7 5.7 0
-14.7 6 0
-14.7 6.3 0
-14.7 6.6 0
-14.7 6.9 0
-14.7 7.2 0
-14.7 7.5 0
-14.7 7.8 0
-14.7 8.1 0
-14.7 8.4 0
-14.7 8.7 0
-14.7 9 0
-14.7 9.3 0
-14.7 9.6 0
-14.7 9.9 0
-14.7 10.2 0
-14.7 10.5 0
-14.7 10.8 0
-14.7 11.1 0
-14.7 11.4 0
-14.7 11.7 0
-14.7 12 0
-14.7 12.3 0
-14.7 12.6 0
-14.7 12.9 0
-14.7 13.2 0
-14.7 13.5 0
-14.7 13.8 0
-14.7 14.1 0
-14.7 14.4 0
-14.7 14.7 0
-14.7 15 0
-14.4 -15 0
-14.4 -14.7 0
-14.4 -14.4 0
-14.4 -14.1 0
-14.4 -13.8 0
-14.4 -13.5 0
-14.4 -13.2 0
-14.4 -12.9 0
-14.4 -12.6 0
-14.4 -12.3 0
-14.4 -12 0
-14.4 -11.7 0
-14.4 -11.4 0
-14.4 -11.1 0
-14.4 -10.8 0
-14.4 -10.5 0
-14.4 -10.2 0
-14.4 -9.9 0
-14.4 -9.6 0
-14.4 -9.3 0
-14.4 -9 0
-14.4 -8.7 0
-14.4 -8.4 0
-14.4 -8.1 0
-14.4 -7.8 0
-14.4 -7.5 0
-14.4 -7.2 0
-14.4 -6.9 0
-14.4 -6.6 0
-14.4 -6.3 0
-14.4 -6 0
-14.4 -5.7 0
-14.4 -5.4 0
-14.4 -5.1 0
-14.4 -4.8 0
-14.4 -4.5 0
-14.4 -4.2 0
-14.4 -3.9 0
-14.4 -3.6 0
-14.4 -3.3 0
-14.4 -3 0
-14.4 -2.7 0
-14.4 -2.4 0
-14.4 -2.1 0
-14.4 -1.8 0
-14.4 -1.5 0
-14.4 -1.2 0
-14.4 -0.9 0
-14.4 -0.6 0
-14.4 -0.3 0
-14.4 0 0
-14.4 0.3 0
-14.4 0.6 0
-14.4 0.9 0
-14.4 1.2 0
-14.4 1.5 0
-14.4 1.8 0
-14.4 2.1 0
-14.4 2.4 0
-14.4 2.7 0
-14.4 3 0
-14.4 3.3 0
-14.4 3.6 0
-14.4 3.9 0
-14.4 4.2 0
-14.4 4.5 0
-14.4 4.8 0
-14.4 5.1 0
-14.4 5.4 0
-14.4 5.7 0
-14.4 6 0
-14.4 6.3 0
-14.4 6.6 0
-14.4 6.9 0
-14.4 7.2 0
-14.4 7.5 0
-14.4 7.8 0
-14.4 8.1 0
-14.4 8.4 0
-14.4 8.7 0
-14.4 9 0
-14.4 9.3 0
-14.4 9.6 0
-14.4 9.9 0
-14.4 10.2 0
-14.4 10.5 0
-14.4 10.8 0
-14.4 11.1 0
-14.4 11.4 0
-14.4 11.7 0
-14.4 12 0
-14.4 12.3 0
-14.4 12.6 0
-14.4 12.9 0
-14.4 13.2 0
-14.4 13.5 0
-14.4 13.8 0
-14.4 14.1 0
-14.4 14.4 0
-14.4 14.7 0
-14.4 15 0
-14.1 -15 0
-14.1 -14.7 0
-14.1 -14.4 0
-14.1 -14.1 0
-14.1 -13.8 0
-14.1 -13.5 0
-14.1 -13.2 0
-14.1 -12.9 0
-14.1 -12.6 0
-14.1 -12.3 0
-14.1 -12 0
-14.1 -11.7 0
-14.1 -11.4 0
-14.1 -11.1 0
-14.1 -10.8 0
-14.1 -10.5 0
-14.1 -10.2 0
-14.1 -9.9 0
-14.1 -9.6 0
-14.1 -9.3 0
-14.1 -9 0
-14.1 -8.7 0
-14.1 -8.4 0
-14.1 -8.1 0
-14.1 -7.8 0
-14.1 -7.5 0
-14.1 -7.2 0
-14.1 -6.9 0
-14.1 -6.6 0
-14.1 -6.3 0
-14.1 -6 0
-14.1 -5.7 0
-14.1 -5.4 0
-14.1 -5.1 0
-14.1 -4.8 0
-14.1 -4.5 0
-14.1 -4.2 0
-14.1 -3.9 0
-14.1 -3.6 0
-14.1 -3.3 0
-14.1 -3 0
-14.1 -2.7 0
-14.1 -2.4 0
-14.1 -2.1 0
-14.1 -1.8 0
-14.1 -1.5 0
-14.1 -1.2 0
-14.1 -0.9 0
-14.1 -0.6 0
-14.1 -0.3 0
-14.1 0 0
-14.1 0.3 0
-14.1 0.6 0
-14.1 0.9 0
-14.1 1.2 0
-14.1 1.5 0
-14.1 1.8 0
-14.1 2.1 0
-14.1 2.4 0
-14.1 2.7 0
-14.1 3 0
-14.1 3.3 0
-14.1 3.6 0
-14.1 3.9 0
-14.1 4.2 0
-14.1 4.5 0
-14.1 4.8 0
-14.1 5.1 0
-14.1 5.4 0
-14.1 5.7 0
-14.1 6 0
-14.1 6.3 0
-14.1 6.6 0
-14.1 6.9 0
-14.1 7.2 0
-14.1 7.5 0
-14.1 7.8 0
-14.1 8.1 0
-14.1 8.4 0
-14.1 8.7 0
-14.1 9 0
-14.1 9.3 0
-14.1 9.6 0
-14.1 9.9 0
-14.1 10.2 0
-14.1 10.5 0
-14.1 10.8 0
-14.1 11.1 0
-14.1 11.4 0
-14.1 11.7 0
-14.1 12 0
-14.1 12.3 0
-14.1 12.6 0
-14.1 12.9 0
-14.1 13.2 0
-14.1 13.5 0
-14.1 13.8 0
-14.1 14.1 0
-14.1 14.4 0
-14.1 14.7 0
-14.1 15 0
-13.8 -15 0
-13.8 -14.7 0
-13.8 -14.4 0
-13.8 -14.1 0
-13.8 -13.8 0
-13.8 -13.5 0
-13.8 -13.2 0
-13.8 -12.9 0
-13.8 -12.6 0
-13.8 -12.3 0
-13.8 -12 0
-13.8 -11.7 0
-13.8 -11.4 0
-13.8 -11.1 0
-13.8 -10.8 0
-13.8 -10.5 0
-13.8 -10.2 0
-13.8 -9.9 0
-13.8 -9.6 0
-13.8 -9.3 0
-13.8 -9 0
-13.8 -8.7 0
-13.8 -8.4 0
-13.8 -8.1 0
-13.8 -7.8 0
-13.8 -7.5 0
-13.8 -7.2 0
-13.8 -6.9 0
-13.8 -6.6 0
-13.8 -6.3 0
-13.8 -6 0
-13.8 -5.7 0
-13.8 -5.4 0
-13.8 -5.1 0
-13.8 -4.8 0
-13.8 -4.5 0
-13.8 -4.2 0
-13.8 -3.9 0
-13.8 -3.6 0
-13.8 -3.3 0
-13.8 -3 0
-13.8 -2.7 0
-13.8 -2.4 0
-13.8 -2.1 0
-13.8 -1.8 0
-13.8 -1.5 0
-13.8 -1.2 0
-13.8 -0.9 0
-13.8 -0.6 0
-13.8 -0.3 0
-13.8 0 0
-13.8 0.3 0
-13.8 0.6 0
-13.8 0.9 0
-13.8 1.2 0
-13.8 1.5 0
-13.8 1.8 0
-13.8 2.1 0
-13.8 2.4 0
-13.8 2.7 0
-13.8 3 0
-13.8 3.3 0
-13.8 3.6 0
-13.8 3.9 0
-13.8 4.2 0
-13.8 4.5 0
-13.8 4.8 0
-13.8 5.1 0
-13.8 5.4 0
-13.8 5.7 0
-13.8 6 0
-13.8 6.3 0
-13.8 6.6 0
-13.8 6.9 0
-13.8 7.2 0
-13.8 7.5 0
-13.8 7.8 0
-13.8 8.1 0
-13.8 8.4 0
-13.8 8.7 0
-13.8 9 0
-13.8 9.3 0
-13.8 9.6 0
-13.8 9.9 0
-13.8 10.2 0
-13.8 10.5 0
-13.8 10.8 0
-13.8 11.1 0
-13.8 11.4 0
-13.8 11.7 0
-13.8 12 0
-13.8 12.3 0
-13.8 12.6 0
-13.8 12.9 0
-13.8 13.2 0
-13.8 13.5 0
-13.8 13.8 0
-13.8 14.1 0
-13.8 14.4 0
-13.8 14.7 0
-13.8 15 0
-13.5 -15 0
-13.5 -14.7 0
-13.5 -14.4 0
-13.5 -14.1 0
-13.5 -13.8 0
-13.5 -13.5 0
-13.5 -13.2 0
-13.5 -12.9 0
-13.5 -12.6 0
-13.5 -12.3 0
-13.5 -12 0
-13.5 -11.7 0
-13.5 -11.4 0
-13.5 -11.1 0
-13.5 -10.8 0
-13.5 -10.5 0
-13.5 -10.2 0
-13.5 -9.9 0
-13.5 -9.6 0
-13.5 -9.3 0
-13.5 -9 0
-13.5 -8.7 0
-13.5 -8.4 0
-13.5 -8.1 0
-13.5 -7.8 0
-13.5 -7.5 0
-13.5 -7.2 0
-13.5 -6.9 0
-13.5 -6.6 0
-13.5 -6.3 0
-13.5 -6 0
-13.5 -5.7 0
-13.5 -5.4 0
-13.5 -5.1 0
-13.5 -4.8 0
-13.5 -4.5 0
-13.5 -4.2 0
-13.5 -3.9 0
-13.5 -3.6 0
-13.5 -3.3 0
-13.5 -3 0
-13.5 -2.7 0
-13.5 -2.4 0
-13.5 -2.1 0
-13.5 -1.8 0
-13.5 -1.5 0
-13.5 -1.2 0
-13.5 -0.9 0
-13.5 -0.6 0
-13.5 -0.3 0
-13.5 0 0
-13.5 0.3 0
-13.5 0.6 0
-13.5 0.9 0
-13.5 1.2 0
-13.5 1.5 0
-13.5 1.8 0
-13.5 2.1 0
-13.5 2.4 0
-13.5 2.7 0
-13.5 3 0
-13.5 3.3 0
-13.5 3.6 0
-13.5 3.9 0
-13.5 4.2 0
-13.5 4.5 0
-13.5 4.8 0
-13.5 5.1 0
-13.5 5.4 0
-13.5 5.7 0
-13.5 6 0
-13.5 6.3 0
-13.5 6.6 0
-13.5 6.9 0
-13.5 7.2 0
-13.5 7.5 0
-13.5 7.8 0
-13.5 8.1 0
-13.5 8.4 0
-13.5 8.7 0
-13.5 9 0
-13.5 9.3 0
-13.5 9.6 0
-13.5 9.9 0
-13.5 10.2 0
-13.5 10.5 0
-13.5 10.8 0
-13.5 11.1 0
-13.5 11.4 0
-13.5 11.7 0
-13.5 12 0
-13.5 12.3 0
-13.5 12.6 0
-13.5 12.9 0
-13.5 13.2 0
-13.5 13.5 0
-13.5 13.8 0
-13.5 14.1 0
-13.5 14.4 0
-13.5 14.7 0
-13.5 15 0
-13.2 -15 0
-13.2 -14.7 0
-13.2 -14.4 0
-13.2 -14.1 0
-13.2 -13.8 0
-13.2 -13.5 0
-13.2 -13.2 0
-13.2 -12.9 0
-13.2 -12.6 0
-13.2 -12.3 0
-13.2 -12 0
-13.2 -11.7 0
-13.2 -11.4 0
-13.2 -11.1 0
-13.2 -10.8 0
-13.2 -10.5 0
-13.2 -10.2 0
-13.2 -9.9 0
-13.2 -9.6 0
-13.2 -9.3 0
-13.2 -9 0
-13.2 -8.7 0
-13.2 -8.4 0
-13.2 -8.1 0
-13.2 -7.8 0
-13.2 -7.5 0
-13.2 -7.2 0
-13.2 -6.9 0
-13.2 -6.6 0
-13.2 -6.3 0
-13.2 -6 0
-13.2 -5.7 0
-13.2 -5.4 0
-13.2 -5.1 0
-13.2 -4.8 0
-13.2 -4.5 0
-13.2 -4.2 0
-13.2 -3.9 0
-13.2 -3.6 0
-13.2 -3.3 0
-13.2 -3 0
-13.2 -2.7 0
-13.2 -2.4 0
-13.2 -2.1 0
-13.2 -1.8 0
-13.2 -1.5 0
-13.2 -1.2 0
-13.2 -0.9 0
-13.2 -0.6 0
-13.2 -0.3 0
-13.2 0 0
-13.2 0.3 0
-13.2 0.6 0
-13.2 0.9 0
-13.2 1.2 0
-13.2 1.5 0
-13.2 1.8 0
-13.2 2.1 0
-13.2 2.4 0
-13.2 2.7 0
-13.2 3 0
-13.2 3.3 0
-13.2 3.6 0
-13.2 3.9 0
-13.2 4.2 0
-13.2 4.5 0
-13.2 4.8 0
-13.2 5.1 0
-13.2 5.4 0
-13.2 5.7 0
-13.2 6 0
-13.2 6.3 0
-13.2 6.6 0
-13.2 6.9 0
-13.2 7.2 0
-13.2 7.5 0
-13.2 7.8 0
-13.2 8.1 0
-13.2 8.4 0
-13.2 8.7 0
-13.2 9 0
-13.2 9.3 0
-13.2 9.6 0
-13.2 9.9 0
-13.2 10.2 0
-13.2 10.5 0
-13.2 10.8 0
-13.2 11.1 0
-13.2 11.4 0
-13.2 11.7 0
-13.2 12 0
-13.2 12.3 0
-13.2 12.6 0
-13.2 12.9 0
-13.2 13.2 0
-13.2 13.5 0
-13.2 13.8 0
-13.2 14.1 0
-13.2 14.4 0
-13.2 14.7 0
-13.2 15 0
-12.9 -15 0
-12.9 -14.7 0
-12.9 -14.4 0
-12.9 -14.1 0
-12.9 -13.8 0
-12.9 -13.5 0
-12.9 -13.2 0
-12.9 -12.9 0
-12.9 -12.6 0
-12.9 -12.3 0
-12.9 -12 0
-12.9 -11.7 0
-12.9 -11.4 0
-12.9 -11.1 0
-12.9 -10.8 0
-12.9 -10.5 0
-12.9 -10.2 0
-12.9 -9.9 0
-12.9 -9.6 0
-12.9 -9.3 0
-12.9 -9 0
-12.9 -8.7 0
-12.9 -8.4 0
-12.9 -8.1 0
-12.9 -7.8 0
-12.9 -7.5 0
-12.9 -7.2 0
-12.9 -6.9 0
-12.9 -6.6 0
-12.9 -6.3 0
-12.9 -6 0
-12.9 -5.7 0
-12.9 -5.4 0
-12.9 -5.1 0
-12.9 -4.8 0
-12.9 -4.5 0
-12.9 -4.2 0
-12.9 -3.9 0
-12.9 -3.6 0
-12.9 -3.3 0
-12.9 -3 0
-12.9 -2.7 0
-12.9 -2.4 0
-12.9 -2.1 0
-12.9 -1.8 0
-12.9 -1.5 0
-12.9 -1.2 0
-12.9 -0.9 0
-12.9 -0.6 0
-12.9 -0.3 0
-12.9 0 0
-12.9 0.3 0
-12.9 0.6 0
-12.9 0.9 0
-12.9 1.2 0
-12.9 1.5 0
-12.9 1.8 0
-12.9 2.1 0
-12.9 2.4 0
-12.9 2.7 0
-12.9 3 0
-12.9 3.3 0
-12.9 3.6 0
-12.9 3.9 0
-12.9 4.2 0
-12.9 4.5 0
-12.9 4.8 0
-12.9 5.1 0
-12.9 5.4 0
-12.9 5.7 0
-12.9 6 0
-12.9 6.3 0
-12.9 6.6 0
-12.9 6.9 0
-12.9 7.2 0
-12.9 7.5 0
-12.9 7.8 0
-12.9 8.1 0
-12.9 8.4 0
-12.9 8.7 0
-12.9 9 0
[...]
            <PointData>
                <DataArray type="Float64" Name="c1" format="ascii">
0.00129554 0.00129679 0.00130056 0.00130683 0.0013156 0.00132686 0.00134061 0.00135682 0.00137548 0.00139657 0.00142006 0.00144593 0.00147414 0.00150465 0.00153742 0.0015724 0.00160952 0.00164874 0.00168997 0.00173312 0.00177812 0.00182486 0.00187323 0.00192311 0.00197436 0.00202684 0.00208039 0.00213484 0.00219001 0.00224572 0.00230174 0.00235787 0.00241387 0.00246952 0.00252455 0.00257873 0.00263178 0.00268345 0.00273346 0.00278156 0.00282747 0.00287094 0.00291172 0.00294957 0.00298425 0.00301556 0.00304329 0.00306728 0.00308738 0.00310345 0.0031154 0.00312315 0.00312666 0.00312592 0.00312094 0.00311178 0.0030985 0.00308121 0.00306004 0.00303515 0.00300671 0.00297493 0.00294003 0.00290225 0.00286182 0.00281901 0.00277409 0.00272733 0.00267901 0.00262939 0.00257876 0.00252738 0.00247552 0.00242342 0.00237134 0.00231952 0.00226818 0.00221753 0.00216777 0.0021191 0.0020717 0.00202572 0.00198132 0.00193864 0.0018978 0.00185894 0.00182214 0.00178752 0.00175515 0.00172511 0.00169747 0.0016723 0.00164964 0.00162955 0.00161206 0.0015972 0.00158501 0.0015755 0.0015687 0.00156462 0.00156326 
0.00129652 0.00129778 0.00130156 0.00130784 0.00131664 0.00132793 0.00134171 0.00135796 0.00137667 0.00139781 0.00142136 0.0014473 0.00147559 0.00150618 0.00153905 0.00157413 0.00161137 0.0016507 0.00169206 0.00173535 0.0017805 0.0018274 0.00187593 0.00192599 0.00197742 0.0020301 0.00208385 0.00213852 0.00219392 0.00224985 0.00230611 0.00236248 0.00241873 0.00247463 0.00252992 0.00258435 0.00263766 0.00268958 0.00273985 0.00278819 0.00283435 0.00287805 0.00291905 0.0029571 0.00299197 0.00302345 0.00305134 0.00307546 0.00309567 0.00311183 0.00312384 0.00313163 0.00313516 0.00313441 0.00312939 0.00312017 0.0031068 0.0030894 0.0030681 0.00304306 0.00301446 0.00298249 0.00294739 0.00290939 0.00286873 0.00282569 0.00278052 0.00273351 0.00268493 0.00263506 0.00258417 0.00253254 0.00248042 0.00242808 0.00237576 0.0023237 0.00227213 0.00222126 0.0021713 0.00212243 0.00207483 0.00202867 0.00198409 0.00194125 0.00190027 0.00186126 0.00182434 0.00178959 0.00175711 0.00172697 0.00169924 0.00167399 0.00165126 0.0016311 0.00161356 0.00159865 0.00158643 0.00157689 0.00157007 0.00156597 0.00156461 
0.00129947 0.00130074 0.00130454 0.00131087 0.00131973 0.00133111 0.00134499 0.00136137 0.00138022 0.00140153 0.00142527 0.00145142 0.00147994 0.00151079 0.00154394 0.00157933 0.0016169 0.00165659 0.00169833 0.00174205 0.00178764 0.00183501 0.00188404 0.00193463 0.00198662 0.00203989 0.00209426 0.00214957 0.00220563 0.00226226 0.00231923 0.00237634 0.00243334 0.00249 0.00254606 0.00260126 0.00265535 0.00270804 0.00275906 0.00280815 0.00285502 0.00289941 0.00294107 0.00297974 0.00301518 0.00304718 0.00307554 0.00310007 0.00312061 0.00313703 0.00314924 0.00315715 0.00316072 0.00315994 0.00315482 0.00314541 0.00313179 0.00311406 0.00309237 0.00306687 0.00303775 0.00300522 0.00296951 0.00293085 0.00288951 0.00284575 0.00279984 0.00275208 0.00270273 0.00265209 0.00260043 0.00254803 0.00249515 0.00244207 0.00238902 0.00233626 0.002284 0.00223247 0.00218187 0.0021324 0.00208422 0.00203752 0.00199243 0.0019491 0.00190767 0.00186824 0.00183092 0.00179581 0.001763 0.00173256 0.00170456 0.00167906 0.00165611 0.00163576 0.00161805 0.00160301 0.00159067 0.00158105 0.00157417 0.00157003 0.00156865 
0.00130438 0.00130566 0.00130951 0.00131592 0.00132489 0.00133641 0.00135046 0.00136705 0.00138614 0.00140773 0.00143178 0.00145828 0.00148719 0.00151847 0.00155208 0.00158798 0.00162611 0.00166641 0.0017088 0.0017532 0.00179953 0.00184769 0.00189757 0.00194904 0.00200198 0.00205622 0.00211163 0.00216802 0.0022252 0.00228299 0.00234116 0.00239949 0.00245775 0.00251569 0.00257304 0.00262955 0.00268493 0.00273892 0.00279122 0.00284155 0.00288963 0.00293519 0.00297795 0.00301766 0.00305407 0.00308695 0.00311608 0.00314129 0.0031624 0.00317928 0.00319181 0.00319992 0.00320357 0.00320273 0.00319743 0.00318771 0.00317366 0.00315538 0.00313303 0.00310676 0.00307678 0.0030433 0.00300655 0.00296679 0.00292429 0.00287932 0.00283218 0.00278314 0.00273251 0.00268057 0.00262761 0.00257392 0.00251978 0.00246544 0.00241118 0.00235723 0.00230382 0.00225119 0.00219953 0.00214904 0.0020999 0.00205228 0.00200633 0.00196219 0.00192 0.00187986 0.00184189 0.00180618 0.00177281 0.00174187 0.00171341 0.0016875 0.00166419 0.00164352 0.00162554 0.00161027 0.00159774 0.00158797 0.00158099 0.00157679 0.00157539 
0.00131123 0.00131254 0.00131645 0.00132297 0.00133209 0.00134381 0.00135811 0.00137498 0.00139441 0.00141639 0.00144088 0.00146787 0.00149732 0.00152921 0.00156348 0.0016001 0.00163901 0.00168015 0.00172345 0.00176883 0.0018162 0.00186548 0.00191654 0.00196926 0.00202351 0.00207915 0.00213601 0.00219392 0.00225269 0.00231211 0.00237197 0.00243204 0.00249208 0.00255182 0.00261101 0.00266936 0.00272658 0.0027824 0.00283651 0.00288861 0.00293841 0.00298563 0.00302996 0.00307115 0.00310893 0.00314305 0.0031733 0.00319947 0.00322139 0.0032389 0.0032519 0.00326031 0.00326406 0.00326314 0.00325758 0.00324742 0.00323275 0.00321369 0.0031904 0.00316304 0.00313183 0.00309699 0.00305878 0.00301746 0.00297331 0.00292664 0.00287773 0.00282689 0.00277443 0.00272065 0.00266586 0.00261035 0.0025544 0.0024983 0.00244231 0.00238668 0.00233166 0.00227746 0.0022243 0.00217238 0.00212189 0.00207298 0.00202581 0.00198054 0.00193727 0.00189614 0.00185725 0.00182069 0.00178654 0.00175489 0.00172579 0.0016993 0.00167548 0.00165437 0.001636 0.00162041 0.00160761 0.00159764 0.00159051 0.00158623 0.0015848 
0.00132001 0.00132134 0.00132534 0.001332 0.00134132 0.00135329 0.0013679 0.00138515 0.00140502 0.00142749 0.00145255 0.00148017 0.00151033 0.00154299 0.00157812 0.00161566 0.00165558 0.00169781 0.00174229 0.00178893 0.00183766 0.00188837 0.00194096 0.00199531 0.00205127 0.00210871 0.00216746 0.00222735 0.00228817 0.00234973 0.00241179 0.00247412 0.00253647 0.00259858 0.00266015 0.0027209 0.00278054 0.00283875 0.00289522 0.00294964 0.0030017 0.00305107 0.00309747 0.0031406 0.00318017 0.00321593 0.00324764 0.00327507 0.00329805 0.00331641 0.00333002 0.0033388 0.0033427 0.00334168 0.00333577 0.00332503 0.00330956 0.00328947 0.00326493 0.00323614 0.00320332 0.00316671 0.00312657 0.0030832 0.00303691 0.00298799 0.00293677 0.00288357 0.00282872 0.00277255 0.00271536 0.00265747 0.00259918 0.00254077 0.00248253 0.00242472 0.00236759 0.00231136 0.00225626 0.00220248 0.00215022 0.00209964 0.0020509 0.00200415 0.0019595 0.00191709 0.001877 0.00183934 0.00180419 0.00177161 0.00174168 0.00171445 0.00168997 0.00166828 0.00164942 0.00163341 0.00162028 0.00161004 0.00160272 0.00159833 0.00159686 
0.00133069 0.00133206 0.00133616 0.00134299 0.00135255 0.00136483 0.00137983 0.00139754 0.00141794 0.00144103 0.00146678 0.00149518 0.0015262 0.00155981 0.00159598 0.00163467 0.00167583 0.0017194 0.00176532 0.00181352 0.00186391 0.0019164 0.00197088 0.00202722 0.00208531 0.00214498 0.00220606 0.00226839 0.00233176 0.00239596 0.00246076 0.0025259 0.00259113 0.00265616 0.00272071 0.00278446 0.00284709 0.00290829 0.00296772 0.00302503 0.0030799 0.00313199 0.00318097 0.00322652 0.00326834 0.00330616 0.00333969 0.00336872 0.00339302 0.00341244 0.00342683 0.00343608 0.00344015 0.003439 0.00343266 0.0034212 0.00340471 0.00338333 0.00335724 0.00332665 0.0032918 0.00325296 0.00321042 0.00316449 0.00311549 0.00306377 0.00300966 0.00295352 0.00289569 0.00283652 0.00277635 0.0027155 0.00265429 0.00259302 0.00253199 0.00247147 0.00241172 0.00235297 0.00229546 0.00223939 0.00218494 0.0021323 0.00208162 0.00203304 0.00198669 0.00194269 0.00190113 0.00186212 0.00182573 0.00179203 0.00176108 0.00173293 0.00170764 0.00168524 0.00166577 0.00164925 0.0016357 0.00162515 0.0016176 0.00161306 0.00161155 
0.00134325 0.00134466 0.00134888 0.00135592 0.00136576 0.00137841 0.00139387 0.00141212 0.00143315 0.00145696 0.00148354 0.00151286 0.0015449 0.00157965 0.00161706 0.00165711 0.00169974 0.00174491 0.00179255 0.0018426 0.00189498 0.00194958 0.00200632 0.00206506 0.00212568 0.00218801 0.0022519 0.00231717 0.00238359 0.00245097 0.00251905 0.00258758 0.00265627 0.00272484 0.00279298 0.00286035 0.00292662 0.00299143 0.00305444 0.00311527 0.00317355 0.00322893 0.00328105 0.00332956 0.00337412 0.00341443 0.0034502 0.00348116 0.00350709 0.0035278 0.00354312 0.00355296 0.00355724 0.00355593 0.00354907 0.00353672 0.00351899 0.00349603 0.00346805 0.00343526 0.00339795 0.00335639 0.00331092 0.00326187 0.00320959 0.00315447 0.00309686 0.00303715 0.00297571 0.00291292 0.00284913 0.0027847 0.00271996 0.00265525 0.00259085 0.00252707 0.00246418 0.00240241 0.002342 0.00228318 0.00222612 0.002171 0.002118 0.00206724 0.00201885 0.00197296 0.00192965 0.00188903 0.00185116 0.00181611 0.00178395 0.00175472 0.00172847 0.00170522 0.00168503 0.0016679 0.00165385 0.00164292 0.0016351 0.0016304 0.00162883 
0.00135765 0.00135911 0.00136347 0.00137074 0.00138091 0.00139399 0.00140997 0.00142885 0.00145062 0.00147527 0.0015028 0.00153319 0.00156642 0.00160248 0.00164133 0.00168295 0.0017273 0.00177433 0.00182398 0.00187619 0.00193088 0.00198796 0.00204733 0.00210887 0.00217245 0.00223791 0.00230509 0.00237379 0.00244382 0.00251493 0.00258688 0.0026594 0.00273219 0.00280494 0.00287732 0.00294898 0.00301955 0.00308866 0.00315592 0.00322093 0.00328328 0.00334258 0.00339844 0.00345048 0.00349831 0.00354161 0.00358005 0.00361333 0.0036412 0.00366345 0.0036799 0.00369043 0.00369497 0.00369347 0.00368598 0.00367256 0.00365335 0.0036285 0.00359825 0.00356284 0.00352257 0.00347777 0.0034288 0.00337602 0.00331984 0.00326066 0.00319889 0.00313493 0.00306921 0.00300211 0.00293405 0.00286538 0.00279648 0.00272769 0.00265933 0.00259171 0.00252511 0.00245978 0.00239598 0.00233392 0.0022738 0.00221579 0.00216007 0.00210676 0.002056 0.00200789 0.00196255 0.00192004 0.00188045 0.00184385 0.00181027 0.00177978 0.00175241 0.00172819 0.00170715 0.00168931 0.0016747 0.00166332 0.00165518 0.0016503 0.00164867 
0.00137386 0.00137536 0.00137988 0.00138742 0.00139797 0.00141153 0.00142811 0.0014477 0.00147031 0.00149592 0.00152453 0.00155613 0.00159072 0.00162828 0.00166877 0.00171219 0.0017585 0.00180765 0.0018596 0.00191428 0.00197162 0.00203154 0.00209394 0.0021587 0.00222569 0.00229476 0.00236573 0.00243842 0.0025126 0.00258804 0.00266448 0.00274163 0.00281918 0.0028968 0.00297413 0.0030508 0.00312641 0.00320054 0.00327278 0.00334268 0.00340981 0.00347373 0.00353399 0.00359018 0.00364187 0.00368869 0.00373028 0.0037663 0.00379647 0.00382054 0.00383833 0.00384968 0.00385452 0.0038528 0.00384456 0.00382988 0.00380891 0.00378183 0.00374889 0.00371038 0.00366663 0.00361801 0.00356491 0.00350775 0.00344697 0.00338303 0.00331636 0.00324743 0.00317669 0.00310457 0.0030315 0.0029579 0.00288414 0.00281061 0.00273764 0.00266556 0.00259467 0.00252524 0.00245751 0.00239172 0.00232806 0.00226672 0.00220786 0.00215162 0.00209813 0.00204749 0.00199981 0.00195515 0.00191359 0.0018752 0.00184001 0.00180808 0.00177943 0.0017541 0.0017321 0.00171346 0.00169819 0.0016863 0.00167781 0.00167271 0.00167101 
0.00139181 0.00139338 0.00139808 0.00140591 0.00141688 0.00143099 0.00144824 0.00146864 0.00149217 0.00151886 0.00154869 0.00158166 0.00161777 0.001657 0.00169935 0.0017448 0.00179331 0.00184486 0.0018994 0.00195688 0.00201723 0.00208037 0.0021462 0.00221462 0.00228549 0.00235866 0.00243396 0.00251119 0.00259013 0.00267053 0.00275211 0.00283458 0.00291761 0.00300083 0.00308387 0.00316632 0.00324775 0.0033277 0.00340571 0.00348131 0.00355399 0.00362327 0.00368867 0.0037497 0.0038059 0.00385684 0.00390211 0.00394134 0.0039742 0.00400042 0.00401976 0.00403208 0.00403727 0.00403529 0.00402617 0.00401002 0.00398698 0.00395728 0.0039212 0.00387906 0.00383123 0.00377814 0.00372022 0.00365796 0.00359183 0.00352234 0.00344999 0.00337529 0.00329873 0.00322079 0.00314195 0.00306265 0.0029833 0.00290432 0.00282606 0.00274886 0.00267305 0.00259891 0.0025267 0.00245665 0.00238897 0.00232383 0.00226141 0.00220185 0.00214526 0.00209175 0.00204142 0.00199433 0.00195055 0.00191014 0.00187313 0.00183957 0.00180949 0.0017829 0.00175982 0.00174028 0.00172427 0.00171182 0.00170292 0.00169757 0.00169579 
0.00141148 0.00141311 0.00141801 0.00142617 0.00143761 0.00145232 0.00147031 0.00149159 0.00151617 0.00154404 0.00157522 0.00160971 0.00164751 0.00168862 0.00173303 0.00178074 0.00183172 0.00188594 0.00194338 0.00200399 0.0020677 0.00213445 0.00220415 0.00227668 0.00235192 0.00242972 0.00250991 0.00259228 0.00267661 0.00276263 0.00285006 0.00293859 0.00302786 0.00311748 0.00320705 0.00329612 0.00338423 0.00347086 0.00355552 0.00363767 0.00371676 0.00379225 0.00386359 0.00393023 0.00399167 0.00404739 0.00409695 0.00413991 0.0041759 0.00420461 0.00422578 0.00423922 0.00424482 0.00424253 0.00423239 0.00421451 0.00418907 0.00415632 0.00411658 0.00407021 0.00401766 0.00395937 0.00389587 0.00382768 0.00375536 0.00367947 0.00360056 0.00351922 0.00343597 0.00335136 0.0032659 0.00318007 0.00309434 0.00300913 0.00292484 0.00284183 0.00276044 0.00268097 0.00260368 0.00252882 0.00245659 0.00238718 0.00232076 0.00225745 0.00219739 0.00214066 0.00208736 0.00203755 0.00199128 0.00194862 0.00190958 0.00187421 0.00184252 0.00181453 0.00179026 0.00176971 0.00175289 0.0017398 0.00173045 0.00172484 0.00172297 
0.00143279 0.00143449 0.00143961 0.00144814 0.00146008 0.00147545 0.00149426 0.00151652 0.00154223 0.00157141 0.00160408 0.00164024 0.00167991 0.00172308 0.00176977 0.00181997 0.00187368 0.00193087 0.00199152 0.0020556 0.00212306 0.00219382 0.00226782 0.00234494 0.00242507 0.00250805 0.00259371 0.00268186 0.00277224 0.0028646 0.00295864 0.00305401 0.00315034 0.00324723 0.00334422 0.00344083 0.00353655 0.00363082 0.00372309 0.00381275 0.0038992 0.00398183 0.00406 0.00413312 0.0042006 0.00426185 0.00431637 0.00436365 0.00440328 0.00443488 0.00445817 0.00447291 0.00447899 0.00447635 0.00446502 0.00444514 0.00441691 0.00438062 0.00433663 0.00428538 0.00422734 0.00416306 0.00409311 0.0040181 0.00393865 0.0038554 0.00376898 0.00368002 0.00358913 0.0034969 0.0034039 0.00331065 0.00321767 0.00312541 0.0030343 0.00294473 0.00285704 0.00277157 0.00268857 0.00260831 0.00253099 0.00245681 0.00238591 0.00231844 0.0022545 0.0021942 0.0021376 0.00208477 0.00203575 0.00199059 0.00194931 0.00191193 0.00187847 0.00184894 0.00182334 0.00180168 0.00178396 0.00177018 0.00176033 0.00175443 0.00175246 
0.00145569 0.00145747 0.00146282 0.00147174 0.00148424 0.00150033 0.00152003 0.00154335 0.0015703 0.00160092 0.00163521 0.00167319 0.0017149 0.00176033 0.00180951 0.00186245 0.00191915 0.0019796 0.00204379 0.00211169 0.00218328 0.00225848 0.00233724 0.00241945 0.002505 0.00259375 0.00268551 0.00278009 0.00287725 0.00297671 0.00307815 0.00318122 0.00328551 0.00339059 0.00349597 0.00360112 0.00370548 0.00380845 0.00390938 0.00400762 0.00410249 0.00419329 0.00427931 0.00435988 0.0044343 0.00450194 0.00456218 0.00461446 0.00465829 0.00469325 0.00471898 0.00473524 0.00474188 0.00473882 0.00472613 0.00470393 0.00467247 0.00463208 0.00458319 0.00452628 0.00446192 0.00439073 0.00431337 0.00423052 0.0041429 0.00405123 0.00395622 0.00385857 0.00375898 0.00365809 0.00355654 0.0034549 0.00335373 0.00325352 0.00315474 0.0030578 0.00296306 0.00287087 0.00278151 0.00269523 0.00261225 0.00253275 0.0024569 0.00238481 0.00231659 0.00225233 0.0021921 0.00213594 0.00208389 0.00203599 0.00199224 0.00195267 0.00191727 0.00188605 0.001859 0.00183613 0.00181742 0.00180288 0.00179249 0.00178626 0.00178418 
0.00148009 0.00148196 0.00148757 0.00149691 0.00151002 0.00152689 0.00154755 0.00157201 0.00160031 0.00163247 0.00166852 0.00170849 0.00175241 0.0018003 0.0018522 0.00190812 0.00196807 0.00203208 0.00210014 0.00217224 0.00224835 0.00232844 0.00241243 0.00250025 0.00259179 0.00268691 0.00278543 0.00288717 0.00299186 0.00309923 0.00320894 0.00332062 0.00343383 0.00354812 0.00366295 0.00377774 0.00389187 0.00400468 0.00411546 0.00422346 0.00432793 0.00442806 0.00452308 0.00461218 0.00469459 0.00476957 0.00483641 0.00489446 0.00494315 0.00498198 0.00501055 0.00502857 0.00503585 0.00503232 0.00501803 0.00499315 0.00495796 0.00491285 0.00485829 0.00479487 0.00472324 0.00464411 0.00455823 0.0044664 0.00436943 0.00426815 0.00416335 0.00405583 0.00394636 0.00383568 0.00372447 0.00361337 0.00350299 0.00339386 0.00328649 0.00318131 0.00307871 0.00297904 0.00288261 0.00278966 0.00270041 0.00261505 0.00253372 0.00245655 0.00238362 0.00231502 0.00225081 0.002191 0.00213565 0.00208475 0.00203831 0.00199634 0.00195883 0.00192577 0.00189715 0.00187295 0.00185318 0.0018378 0.00182683 0.00182025 0.00181806 
0.00150594 0.0015079 0.00151378 0.00152358 0.00153733 0.00155504 0.00157673 0.00160243 0.00163218 0.00166601 0.00170395 0.00174606 0.00179237 0.00184292 0.00189775 0.0019569 0.0020204 0.00208827 0.00216054 0.00223721 0.00231826 0.00240367 0.0024934 0.00258737 0.00268548 0.00278762 0.0028936 0.00300323 0.00311627 0.00323241 0.00335132 0.0034726 0.00359579 0.00372038 0.00384581 0.00397144 0.0040966 0.00422053 0.00434246 0.00446155 0.00457694 0.00468773 0.00479301 0.00489189 0.00498347 0.00506689 0.00514132 0.00520603 0.00526033 0.00530364 0.0053355 0.00535556 0.00536359 0.00535952 0.0053434 0.00531542 0.00527592 0.00522535 0.00516426 0.00509334 0.00501334 0.00492509 0.00482945 0.00472735 0.00461971 0.00450747 0.00439155 0.00427284 0.0041522 0.00403045 0.00390836 0.00378663 0.00366593 0.00354683 0.00342987 0.00331552 0.00320419 0.00309624 0.00299198 0.00289167 0.00279552 0.0027037 0.00261637 0.00253363 0.00245556 0.00238222 0.00231366 0.00224989 0.00219093 0.00213678 0.00208743 0.00204286 0.00200306 0.00196801 0.00193768 0.00191206 0.00189113 0.00187487 0.00186326 0.0018563 0.00185398 
0.00153314 0.0015352 0.00154137 0.00155166 0.0015661 0.0015847 0.00160749 0.00163452 0.00166582 0.00170143 0.00174141 0.00178581 0.00183469 0.00188809 0.00194608 0.00200871 0.00207604 0.00214809 0.00222491 0.00230653 0.00239294 0.00248415 0.00258013 0.00268081 0.00278612 0.00289594 0.00301012 0.00312845 0.00325069 0.00337653 0.00350563 0.00363757 0.00377186 0.00390796 0.00404525 0.00418305 0.0043206 0.00445708 0.00459161 0.00472327 0.00485106 0.00497399 0.005091 0.00520107 0.00530317 0.00539628 0.00547947 0.00555185 0.00561263 0.00566114 0.00569681 0.00571923 0.00572814 0.00572345 0.00570522 0.00567367 0.00562919 0.00557231 0.0055037 0.00542415 0.00533453 0.0052358 0.00512899 0.00501515 0.00489534 0.00477064 0.00464209 0.0045107 0.00437745 0.00424324 0.00410893 0.00397529 0.00384305 0.00371283 0.00358521 0.00346069 0.00333969 0.0032226 0.00310972 0.00300131 0.00289759 0.00279872 0.00270482 0.00261601 0.00253234 0.00245385 0.00238057 0.00231251 0.00224965 0.00219198 0.00213948 0.00209211 0.00204985 0.00201266 0.0019805 0.00195335 0.00193117 0.00191395 0.00190167 0.0018943 0.00189185 
0.0015616 0.00156376 0.00157024 0.00158105 0.00159622 0.00161577 0.00163975 0.00166818 0.00170113 0.00173864 0.00178079 0.00182764 0.00187926 0.00193572 0.0019971 0.00206347 0.00213489 0.00221144 0.00229317 0.00238013 0.00247234 0.00256983 0.00267258 0.00278057 0.00289372 0.00301193 0.00313507 0.00326293 0.00339529 0.00353182 0.00367218 0.00381592 0.00396254 0.00411145 0.00426198 0.00441339 0.00456484 0.00471544 0.0048642 0.00501008 0.00515196 0.0052887 0.0054191 0.00554198 0.00565613 0.0057604 0.00585368 0.00593492 0.00600321 0.00605772 0.00609782 0.00612299 0.00613294 0.00612755 0.00610687 0.0060712 0.00602097 0.00595681 0.00587952 0.00579002 0.00568934 0.0055786 0.00545899 0.00533173 0.00519805 0.00505918 0.00491632 0.0047706 0.00462313 0.00447491 0.0043269 0.00417995 0.00403484 0.00389226 0.00375282 0.00361705 0.00348539 0.00335824 0.0032359 0.00311863 0.00300663 0.00290006 0.00279903 0.00270362 0.00261387 0.00252981 0.00245144 0.00237875 0.00231169 0.00225024 0.00219436 0.00214399 0.00209908 0.0020596 0.00202548 0.00199669 0.00197319 0.00195495 0.00194194 0.00193414 0.00193154 