<?xml version="1.0"?>
<VTKFile type="StructuredGrid" version="0.1">
    <StructuredGrid WholeExtent="0 100 0 100 0 0">
        <Piece Extent="0 100 0 100 0 0">
            <Points>
                <DataArray type="Float64" NumberOfComponents="3" format="ascii">
-15 -15 0
-15 -14.7 0
-15 -14.4 0
-15 -14.1 0
-15 -13.8 0
-15 -13.5 0
-15 -13.2 0
-15 -12.9 0
-15 -12.6 0
-15 -12.3 0
-15 -12 0
-15 -11.7 0
-15 -11.4 0
-15 -11.1 0
-15 -10.8 0
-15 -10.5 0
-15 -10.2 0
-15 -9.9 0
-15 -9.6 0
-15 -9.3 0
-15 -9 0
-15 -8.7 0
-15 -8.4 0
-15 -8.1 0
-15 -7.8 0
-15 -7.5 0
-15 -7.2 0
-15 -6.9 0
-15 -6.6 0
-15 -6.3 0
-15 -6 0
-15 -5.7 0
-15 -5.4 0
-15 -5.1 0
-15 -4.8 0
-15 -4.5 0
-15 -4.2 0
-15 -3.9 0
-15 -3.6 0
-15 -3.3 0
-15 -3 0
-15 -2.7 0
-15 -2.4 0
-15 -2.1 0
-15 -1.8 0
-15 -1.5 0
-15 -1.2 0
-15 -0.9 0
-15 -0.6 0
-15 -0.3 0
-15 0 0
-15 0.3 0
-15 0.6 0
-15 0.9 0
-15 1.2 0
-15 1.5 0
-15 1.8 0
-15 2.1 0
-15 2.4 0
-15 2.7 0
-15 3 0
-15 3.3 0
-15 3.6 0
-15 3.9 0
-15 4.2 0
-15 4.5 0
-15 4.8 0
-15 5.1 0
-15 5.4 0
-15 5.7 0
-15 6 0
-15 6.3 0
-15 6.6 0
-15 6.9 0
-15 7.2 0
-15 7.5 0
-15 7.8 0
-15 8.1 0
-15 8.4 0
-15 8.7 0
-15 9 0
-15 9.3 0
-15 9.6 0
-15 9.9 0
-15 10.2 0
-15 10.5 0
-15 10.8 0
-15 11.1 0
-15 11.4 0
-15 11.7 0
-15 12 0
-15 12.3 0
-15 12.6 0
-15 12.9 0
-15 13.2 0
-15 13.5 0
-15 13.8 0
-15 14.1 0
-15 14.4 0
-15 14.7 0
-15 15 0
-14.7 -15 0
-14.7 -14.7 0
-14.7 -14.4 0
-14.7 -14.1 0
-14.7 -13.8 0
-14.7 -13.5 0
-14.7 -13.2 0
-14.7 -12.9 0
-14.7 -12.6 0
-14.7 -12.3 0
-14.7 -12 0
-14.7 -11.7 0
-14.7 -11.4 0
-14.7 -11.1 0
-14.7 -10.8 0
-14.7 -10.5 0
-14.7 -10.2 0
-14.7 -9.9 0
-14.7 -9.6 0
-14.7 -9.3 0
-14.7 -9 0
-14.7 -8.7 0
-14.7 -8.4 0
-14.7 -8.1 0
-14.7 -7.8 0
-14.7 -7.5 0
-14.7 -7.2 0
-14.7 -6.9 0
-14.7 -6.6 0
-14.7 -6.3 0
-14.7 -6 0
-14.7 -5.7 0
-14.7 -5.4 0
-14.7 -5.1 0
-14.7 -4.8 0
-14.7 -4.5 0
-14.7 -4.2 0
-14.7 -3.9 0
-14.7 -3.6 0
-14.7 -3.3 0
-14.7 -3 0
-14.7 -2.7 0
-14.7 -2.4 0
-14.7 -2.1 0
-14.7 -1.8 0
-14.7 -1.5 0
-14.7 -1.2 0
-14.7 -0.9 0
-14.7 -0.6 0
-14.7 -0.3 0
-14.7 0 0
-14.7 0.3 0
-14.7 0.6 0
-14.7 0.9 0
-14.7 1.2 0
-14.7 1.5 0
-14.7 1.8 0
-14.7 2.1 0
-14.7 2.4 0
-14.7 2.7 0
-14.7 3 0
-14.7 3.3 0
-14.7 3.6 0
-14.7 3.9 0
-14.7 4.2 0
-14.7 4.5 0
-14.7 4.8 0
-14.7 5.1 0
-14.7 5.4 0
-14.7 5.7 0
-14.7 6 0
-14.7 6.3 0
-14.7 6.6 0
-14.7 6.9 0
-14.7 7.2 0
-14.7 7.5 0
-14.7 7.8 0
-14.7 8.1 0
-14.7 8.4 0
-14.7 8.7 0
-14.7 9 0
-14.7 9.3 0
-14.7 9.6 0
-14.7 9.9 0
-14.7 10.2 0
-14.7 10.5 0
-14.7 10.8 0
-14.7 11.1 0
-14.7 11.4 0
-14.7 11.7 0
-14.7 12 0
-14.7 12.3 0
-14.7 12.6 0
-14.7 12.9 0
-14.7 13.2 0
-14.7 13.5 0
-14.7 13.8 0
-14.7 14.1 0
-14.7 14.4 0
-14.7 14.7 0
-14.7 15 0
-14.4 -15 0
-14.4 -14.7 0
-14.4 -14.4 0
-14.4 -14.1 0
-14.4 -13.8 0
-14.4 -13.5 0
-14.4 -13.2 0
-14.4 -12.9 0
-14.4 -12.6 0
-14.4 -12.3 0
-14.4 -12 0
-14.4 -11.7 0
-14.4 -11.4 0
-14.4 -11.1 0
-14.4 -10.8 0
-14.4 -10.5 0
-14.4 -10.2 0
-14.4 -9.9 0
-14.4 -9.6 0
-14.4 -9.3 0
-14.4 -9 0
-14.4 -8.7 0
-14.4 -8.4 0
-14.4 -8.1 0
-14.4 -7.8 0
-14.4 -7.5 0
-14.4 -7.2 0
-14.4 -6.9 0
-14.4 -6.6 0
-14.4 -6.3 0
-14.4 -6 0
-14.4 -5.7 0
-14.4 -5.4 0
-14.4 -5.1 0
-14.4 -4.8 0
-14.4 -4.5 0
-14.4 -4.2 0
-14.4 -3.9 0
-14.4 -3.6 0
-14.4 -3.3 0
-14.4 -3 0
-14.4 -2.7 0
-14.4 -2.4 0
-14.4 -2.1 0
-14.4 -1.8 0
-14.4 -1.5 0
-14.4 -1.2 0
-14.4 -0.9 0
-14.4 -0.6 0
-14.4 -0.3 0
-14.4 0 0
-14.4 0.3 0
-14.4 0.6 0
-14.4 0.9 0
-14.4 1.2 0
-14.4 1.5 0
-14.4 1.8 0
-14.4 2.1 0
-14.4 2.4 0
-14.4 2.7 0
-14.4 3 0
-14.4 3.3 0
-14.4 3.6 0
-14.4 3.9 0
-14.4 4.2 0
-14.4 4.5 0
-14.4 4.8 0
-14.4 5.1 0
-14.4 5.4 0
-14.4 5.7 0
-14.4 6 0
-14.4 6.3 0
-14.4 6.6 0
-14.4 6.9 0
-14.4 7.2 0
-14.4 7.5 0
-14.4 7.8 0
-14.4 8.1 0
-14.4 8.4 0
-14.4 8.7 0
-14.4 9 0
-14.4 9.3 0
-14.4 9.6 0
-14.4 9.9 0
-14.4 10.2 0
-14.4 10.5 0
-14.4 10.8 0
-14.4 11.1 0
-14.4 11.4 0
-14.4 11.7 0
-14.4 12 0
-14.4 12.3 0
-14.4 12.6 0
-14.4 12.9 0
-14.4 13.2 0
-14.4 13.5 0
-14.4 13.8 0
-14.4 14.1 0
-14.4 14.4 0
-14.4 14.7 0
-14.4 15 0
-14.1 -15 0
-14.1 -14.7 0
-14.1 -14.4 0
-14.1 -14.1 0
-14.1 -13.8 0
-14.1 -13.5 0
-14.1 -13.2 0
-14.1 -12.9 0
-14.1 -12.6 0
-14.1 -12.3 0
-14.1 -12 0
-14.1 -11.7 0
-14.1 -11.4 0
-14.1 -11.1 0
-14.1 -10.8 0
-14.1 -10.5 0
-14.1 -10.2 0
-14.1 -9.9 0
-14.1 -9.6 0
-14.1 -9.3 0
-14.1 -9 0
-14.1 -8.7 0
-14.1 -8.4 0
-14.1 -8.1 0
-14.1 -7.8 0
-14.1 -7.5 0
-14.1 -7.2 0
-14.1 -6.9 0
-14.1 -6.6 0
-14.1 -6.3 0
-14.1 -6 0
-14.1 -5.7 0
-14.1 -5.4 0
-14.1 -5.1 0
-14.1 -4.8 0
-14.1 -4.5 0
-14.1 -4.2 0
-14.1 -3.9 0
-14.1 -3.6 0
-14.1 -3.3 0
-14.1 -3 0
-14.1 -2.7 0
-14.1 -2.4 0
-14.1 -2.1 0
-14.1 -1.8 0
-14.1 -1.5 0
-14.1 -1.2 0
-14.1 -0.9 0
-14.1 -0.6 0
-14.1 -0.3 0
-14.1 0 0
-14.1 0.3 0
-14.1 0.6 0
-14.1 0.9 0
-14.1 1.2 0
-14.1 1.5 0
-14.1 1.8 0
-14.1 2.1 0
-14.1 2.4 0
-14.1 2.7 0
-14.1 3 0
-14.1 3.3 0
-14.1 3.6 0
-14.1 3.9 0
-14.1 4.2 0
-14.1 4.5 0
-14.1 4.8 0
-14.1 5.1 0
-14.1 5.4 0
-14.1 5.7 0
-14.1 6 0
-14.1 6.3 0
-14.1 6.6 0
-14.1 6.9 0
-14.1 7.2 0
-14.1 7.5 0
-14.1 7.8 0
-14.1 8.1 0
-14.1 8.4 0
-14.1 8.7 0
-14.1 9 0
-14.1 9.3 0
-14.1 9.6 0
-14.1 9.9 0
-14.1 10.2 0
-14.1 10.5 0
-14.1 10.8 0
-14.1 11.1 0
-14.1 11.4 0
-14.1 11.7 0
-14.1 12 0
-14.1 12.3 0
-14.1 12.6 0
-14.1 12.9 0
-14.1 13.2 0
-14.1 13.5 0
-14.1 13.8 0
-14.1 14.1 0
-14.1 14.4 0
-14.1 14.7 0
-14.1 15 0
-13.8 -15 0
-13.8 -14.7 0
-13.8 -14.4 0
-13.8 -14.1 0
-13.8 -13.8 0
-13.8 -13.5 0
-13.8 -13.2 0
-13.8 -12.9 0
-13.8 -12.6 0
-13.8 -12.3 0
-13.8 -12 0
-13.8 -11.7 0
-13.8 -11.4 0
-13.8 -11.1 0
-13.8 -10.8 0
-13.8 -10.5 0
-13.8 -10.2 0
-13.8 -9.9 0
-13.8 -9.6 0
-13.8 -9.3 0
-13.8 -9 0
-13.8 -8.7 0
-13.8 -8.4 0
-13.8 -8.1 0
-13.8 -7.8 0
-13.8 -7.5 0
-13.8 -7.2 0
-13.8 -6.9 0
-13.8 -6.6 0
-13.8 -6.3 0
-13.8 -6 0
-13.8 -5.7 0
-13.8 -5.4 0
-13.8 -5.1 0
-13.8 -4.8 0
-13.8 -4.5 0
-13.8 -4.2 0
-13.8 -3.9 0
-13.8 -3.6 0
-13.8 -3.3 0
-13.8 -3 0
-13.8 -2.7 0
-13.8 -2.4 0
-13.8 -2.1 0
-13.8 -1.8 0
-13.8 -1.5 0
-13.8 -1.2 0
-13.8 -0.9 0
-13.8 -0.6 0
-13.8 -0.3 0
-13.8 0 0
-13.8 0.3 0
-13.8 0.6 0
-13.8 0.9 0
-13.8 1.2 0
-13.8 1.5 0
-13.8 1.8 0
-13.8 2.1 0
-13.8 2.4 0
-13.8 2.7 0
-13.8 3 0
-13.8 3.3 0
-13.8 3.6 0
-13.8 3.9 0
-13.8 4.2 0
-13.8 4.5 0
-13.8 4.8 0
-13.8 5.1 0
-13.8 5.4 0
-13.8 5.7 0
-13.8 6 0
-13.8 6.3 0
-13.8 6.6 0
-13.8 6.9 0
-13.8 7.2 0
-13.8 7.5 0
-13.8 7.8 0
-13.8 8.1 0
-13.8 8.4 0
-13.8 8.7 0
-13.8 9 0
-13.8 9.3 0
-13.8 9.6 0
-13.8 9.9 0
-13.8 10.2 0
-13.8 10.5 0
-13.8 10.8 0
-13.8 11.1 0
-13.8 11.4 0
-13.8 11.7 0
-13.8 12 0
-13.8 12.3 0
-13.8 12.6 0
-13.8 12.9 0
-13.8 13.2 0
-13.8 13.5 0
-13.8 13.8 0
-13.8 14.1 0
-13.8 14.4 0
-13.8 14.7 0
-13.8 15 0
-13.5 -15 0
-13.5 -14.7 0
-13.5 -14.4 0
-13.5 -14.1 0
-13.5 -13.8 0
-13.5 -13.5 0
-13.5 -13.2 0
-13.5 -12.9 0
-13.5 -12.6 0
-13.5 -12.3 0
-13.5 -12 0
-13.5 -11.7 0
-13.5 -11.4 0
-13.5 -11.1 0
-13.5 -10.8 0
-13.5 -10.5 0
-13.5 -10.2 0
-13.5 -9.9 0
-13.5 -9.6 0
-13.5 -9.3 0
-13.5 -9 0
-13.5 -8.7 0
-13.5 -8.4 0
-13.5 -8.1 0
-13.5 -7.8 0
-13.5 -7.5 0
-13.5 -7.2 0
-13.5 -6.9 0
-13.5 -6.6 0
-13.5 -6.3 0
-13.5 -6 0
-13.5 -5.7 0
-13.5 -5.4 0
-13.5 -5.1 0
-13.5 -4.8 0
-13.5 -4.5 0
-13.5 -4.2 0
-13.5 -3.9 0
-13.5 -3.6 0
-13.5 -3.3 0
-13.5 -3 0
-13.5 -2.7 0
-13.5 -2.4 0
-13.5 -2.1 0
-13.5 -1.8 0
-13.5 -1.5 0
-13.5 -1.2 0
-13.5 -0.9 0
-13.5 -0.6 0
-13.5 -0.3 0
-13.5 0 0
-13.5 0.3 0
-13.5 0.6 0
-13.5 0.9 0
-13.5 1.2 0
-13.5 1.5 0
-13.5 1.8 0
-13.5 2.1 0
-13.5 2.4 0
-13.5 2.7 0
-13.5 3 0
-13.5 3.3 0
-13.5 3.6 0
-13.5 3.9 0
-13.5 4.2 0
-13.5 4.5 0
-13.5 4.8 0
-13.5 5.1 0
-13.5 5.4 0
-13.5 5.7 0
-13.5 6 0
-13.5 6.3 0
-13.5 6.6 0
-13.5 6.9 0
-13.5 7.2 0
-13.5 7.5 0
-13.5 7.8 0
-13.5 8.1 0
-13.5 8.4 0
-13.5 8.7 0
-13.5 9 0
-13.5 9.3 0
-13.5 9.6 0
-13.5 9.9 0
-13.5 10.2 0
-13.5 10.5 0
-13.5 10.8 0
-13.5 11.1 0
-13.5 11.4 0
-13.5 11.7 0
-13.5 12 0
-13.5 12.3 0
-13.5 12.6 0
-13.5 12.9 0
-13.5 13.2 0
-13.5 13.5 0
-13.5 13.8 0
-13.5 14.1 0
-13.5 14.4 0
-13.5 14.7 0
-13.5 15 0
-13.2 -15 0
-13.2 -14.7 0
-13.2 -14.4 0
-13.2 -14.1 0
-13.2 -13.8 0
-13.2 -13.5 0
-13.2 -13.2 0
-13.2 -12.9 0
-13.2 -12.6 0
-13.2 -12.3 0
-13.2 -12 0
-13.2 -11.7 0
-13.2 -11.4 0
-13.2 -11.1 0
-13.2 -10.8 0
-13.2 -10.5 0
-13.2 -10.2 0
-13.2 -9.9 0
-13.2 -9.6 0
-13.2 -9.3 0
-13.2 -9 0
-13.2 -8.7 0
-13.2 -8.4 0
-13.2 -8.1 0
-13.2 -7.8 0
-13.2 -7.5 0
-13.2 -7.2 0
-13.2 -6.9 0
-13.2 -6.6 0
-13.2 -6.3 0
-13.2 -6 0
-13.2 -5.7 0
-13.2 -5.4 0
-13.2 -5.1 0
-13.2 -4.8 0
-13.2 -4.5 0
-13.2 -4.2 0
-13.2 -3.9 0
-13.2 -3.6 0
-13.2 -3.3 0
-13.2 -3 0
-13.2 -2.7 0
-13.2 -2.4 0
-13.2 -2.1 0
-13.2 -1.8 0
-13.2 -1.5 0
-13.2 -1.2 0
-13.2 -0.9 0
-13.2 -0.6 0
-13.2 -0.3 0
-13.2 0 0
-13.2 0.3 0
-13.2 0.6 0
-13.2 0.9 0
-13.2 1.2 0
-13.2 1.5 0
-13.2 1.8 0
-13.2 2.1 0
-13.2 2.4 0
-13.2 2.7 0
-13.2 3 0
-13.2 3.3 0
-13.2 3.6 0
-13.2 3.9 0
-13.2 4.2 0
-13.2 4.5 0
-13.2 4.8 0
-13.2 5.1 0
-13.2 5.4 0
-13.2 5.7 0
-13.2 6 0
-13.2 6.3 0
-13.2 6.6 0
-13.2 6.9 0
-13.2 7.2 0
-13.2 7.5 0
-13.2 7.8 0
-13.2 8.1 0
-13.2 8.4 0
-13.2 8.7 0
-13.2 9 0
-13.2 9.3 0
-13.2 9.6 0
-13.2 9.9 0
-13.2 10.2 0
-13.2 10.5 0
-13.2 10.8 0
-13.2 11.1 0
-13.2 11.4 0
-13.2 11.7 0
-13.2 12 0
-13.2 12.3 0
-13.2 12.6 0
-13.2 12.9 0
-13.2 13.2 0
-13.2 13.5 0
-13.2 13.8 0
-13.2 14.1 0
-13.2 14.4 0
-13.2 14.7 0
-13.2 15 0
-12.9 -15 0
-12.9 -14.7 0
-12.9 -14.4 0
-12.9 -14.1 0
-12.9 -13.8 0
-12.9 -13.5 0
-12.9 -13.2 0
-12.9 -12.9 0
-12.9 -12.6 0
-12.9 -12.3 0
-12.9 -12 0
-12.9 -11.7 0
-12.9 -11.4 0
-12.9 -11.1 0
-12.9 -10.8 0
-12.9 -10.5 0
-12.9 -10.2 0
-12.9 -9.9 0
-12.9 -9.6 0
-12.9 -9.3 0
-12.9 -9 0
-12.9 -8.7 0
-12.9 -8.4 0
-12.9 -8.1 0
-12.9 -7.8 0
-12.9 -7.5 0
-12.9 -7.2 0
-12.9 -6.9 0
-12.9 -6.6 0
-12.9 -6.3 0
-12.9 -6 0
-12.9 -5.7 0
-12.9 -5.4 0
-12.9 -5.1 0
-12.9 -4.8 0
-12.9 -4.5 0
-12.9 -4.2 0
-12.9 -3.9 0
-12.9 -3.6 0
-12.9 -3.3 0
-12.9 -3 0
-12.9 -2.7 0
-12.9 -2.4 0
-12.9 -2.1 0
-12.9 -1.8 0
-12.9 -1.5 0
-12.9 -1.2 0
-12.9 -0.9 0
-12.9 -0.6 0
-12.9 -0.3 0
-12.9 0 0
-12.9 0.3 0
-12.9 0.6 0
-12.9 0.9 0
-12.9 1.2 0
-12.9 1.5 0
-12.9 1.8 0
-12.9 2.1 0
-12.9 2.4 0
-12.9 2.7 0
-12.9 3 0
-12.9 3.3 0
-12.9 3.6 0
-12.9 3.9 0
-12.9 4.2 0
-12.9 4.5 0
-12.9 4.8 0
-12.9 5.1 0
-12.9 5.4 0
-12.9 5.7 0
-12.9 6 0
-12.9 6.3 0
-12.9 6.6 0
-12.9 6.9 0
-12.9 7.2 0
-12.9 7.5 0
-12.9 7.8 0
-12.9 8.1 0
-12.9 8.4 0
-12.9 8.7 0
-12.9 9 0
[...]
            <PointData>
                <DataArray type="Float64" Name="c1" format="ascii">
2.38056e-08 2.44985e-08 2.6604e-08 3.0203e-08 3.54318e-08 4.24833e-08 5.16098e-08 6.31253e-08 7.74084e-08 9.49056e-08 1.16134e-07 1.41681e-07 1.72211e-07 2.0846e-07 2.51236e-07 3.01414e-07 3.59932e-07 4.27779e-07 5.05986e-07 5.95605e-07 6.97693e-07 8.13287e-07 9.43376e-07 1.08887e-06 1.25057e-06 1.42911e-06 1.62496e-06 1.83835e-06 2.06923e-06 2.31727e-06 2.58177e-06 2.8617e-06 3.15562e-06 3.46169e-06 3.77767e-06 4.10094e-06 4.4285e-06 4.757e-06 5.08281e-06 5.40207e-06 5.71077e-06 6.0048e-06 6.28008e-06 6.53263e-06 6.75867e-06 6.95472e-06 7.11768e-06 7.24493e-06 7.3344e-06 7.3846e-06 7.3947e-06 7.36453e-06 7.29459e-06 7.18603e-06 7.04064e-06 6.86078e-06 6.64931e-06 6.40953e-06 6.14508e-06 5.85986e-06 5.55791e-06 5.24333e-06 4.9202e-06 4.59247e-06 4.26391e-06 3.93799e-06 3.61791e-06 3.30649e-06 3.00616e-06 2.71896e-06 2.44653e-06 2.19011e-06 1.95056e-06 1.72839e-06 1.52378e-06 1.33664e-06 1.16661e-06 1.01314e-06 8.75496e-07 7.52822e-07 6.44161e-07 5.48494e-07 4.64769e-07 3.91927e-07 3.28922e-07 2.74741e-07 2.28417e-07 1.8904e-07 1.55765e-07 1.27817e-07 1.04493e-07 8.51645e-08 6.92729e-08 5.63318e-08 4.59218e-08 3.76884e-08 3.13386e-08 2.66374e-08 2.34054e-08 2.15162e-08 2.08948e-08 
2.44985e-08 2.52121e-08 2.73807e-08 3.10877e-08 3.64736e-08 4.37375e-08 5.31398e-08 6.50042e-08 7.97217e-08 9.77531e-08 1.19632e-07 1.45966e-07 1.7744e-07 2.14814e-07 2.58923e-07 3.10673e-07 3.71033e-07 4.41027e-07 5.21719e-07 6.14199e-07 7.19563e-07 8.38884e-07 9.73188e-07 1.12342e-06 1.29041e-06 1.47482e-06 1.67714e-06 1.89761e-06 2.13619e-06 2.39254e-06 2.66595e-06 2.95534e-06 3.25924e-06 3.57575e-06 3.90255e-06 4.23694e-06 4.57579e-06 4.91567e-06 5.2528e-06 5.5832e-06 5.90269e-06 6.20703e-06 6.49199e-06 6.75343e-06 6.98745e-06 7.19043e-06 7.35916e-06 7.49092e-06 7.58355e-06 7.63553e-06 7.64598e-06 7.61473e-06 7.54229e-06 7.42988e-06 7.27933e-06 7.09309e-06 6.87414e-06 6.62589e-06 6.35213e-06 6.05688e-06 5.74435e-06 5.41879e-06 5.08441e-06 4.74531e-06 4.40538e-06 4.06824e-06 3.73718e-06 3.41512e-06 3.10457e-06 2.80765e-06 2.52604e-06 2.26101e-06 2.01346e-06 1.7839e-06 1.57253e-06 1.37922e-06 1.20363e-06 1.04515e-06 9.03048e-07 7.76415e-07 6.64265e-07 5.65542e-07 4.79155e-07 4.04009e-07 3.3902e-07 2.83141e-07 2.35373e-07 1.94773e-07 1.6047e-07 1.31663e-07 1.07625e-07 8.77067e-08 7.13324e-08 5.79997e-08 4.72759e-08 3.87952e-08 3.22551e-08 2.74134e-08 2.4085e-08 2.21395e-08 2.14996e-08 
2.6604e-08 2.73807e-08 2.9741e-08 3.37763e-08 3.96402e-08 4.75502e-08 5.77909e-08 7.07169e-08 8.67558e-08 1.06412e-07 1.3027e-07 1.58997e-07 1.93342e-07 2.34142e-07 2.82312e-07 3.38848e-07 4.04816e-07 4.81344e-07 5.69605e-07 6.70801e-07 7.86144e-07 9.1682e-07 1.06397e-06 1.22864e-06 1.41175e-06 1.61406e-06 1.8361e-06 2.07817e-06 2.34024e-06 2.62193e-06 2.9225e-06 3.24077e-06 3.57513e-06 3.92349e-06 4.28333e-06 4.65164e-06 5.02501e-06 5.39963e-06 5.77135e-06 6.13574e-06 6.4882e-06 6.82404e-06 7.13856e-06 7.42718e-06 7.68557e-06 7.90973e-06 8.09608e-06 8.24161e-06 8.34393e-06 8.40133e-06 8.41286e-06 8.3783e-06 8.29825e-06 8.17404e-06 8.00771e-06 7.802e-06 7.56018e-06 7.28607e-06 6.98384e-06 6.65798e-06 6.31313e-06 5.954e-06 5.58525e-06 5.21143e-06 4.83681e-06 4.4654e-06 4.10082e-06 3.74629e-06 3.40457e-06 3.07796e-06 2.76833e-06 2.47706e-06 2.2051e-06 1.95302e-06 1.72101e-06 1.50893e-06 1.31636e-06 1.14264e-06 9.86935e-07 8.48242e-07 7.25464e-07 6.17431e-07 5.22937e-07 4.40774e-07 3.69745e-07 3.08699e-07 2.56533e-07 2.12214e-07 1.74782e-07 1.43359e-07 1.17148e-07 9.54364e-08 7.75941e-08 6.30705e-08 5.13922e-08 4.21591e-08 3.50405e-08 2.97715e-08 2.61498e-08 2.40332e-08 2.33371e-08 
3.0203e-08 3.10877e-08 3.37763e-08 3.83737e-08 4.50555e-08 5.40716e-08 6.57482e-08 8.0492e-08 9.87943e-08 1.21235e-07 1.48485e-07 1.81312e-07 2.2058e-07 2.67253e-07 3.22388e-07 3.87134e-07 4.62725e-07 5.50468e-07 6.51722e-07 7.67887e-07 9.0037e-07 1.05056e-06 1.21978e-06 1.40926e-06 1.62011e-06 1.8532e-06 2.10919e-06 2.38843e-06 2.69092e-06 3.01628e-06 3.36363e-06 3.73166e-06 4.11852e-06 4.52181e-06 4.9386e-06 5.36544e-06 5.79837e-06 6.23295e-06 6.66435e-06 7.08745e-06 7.49686e-06 7.88709e-06 8.25268e-06 8.58828e-06 8.8888e-06 9.14955e-06 9.36636e-06 9.5357e-06 9.65476e-06 9.72154e-06 9.73491e-06 9.69465e-06 9.60143e-06 9.45682e-06 9.26323e-06 9.02383e-06 8.7425e-06 8.42369e-06 8.07229e-06 7.69353e-06 7.29285e-06 6.87576e-06 6.44769e-06 6.01392e-06 5.57944e-06 5.14891e-06 4.72652e-06 4.31599e-06 3.92052e-06 3.54277e-06 3.18487e-06 2.84838e-06 2.53442e-06 2.24358e-06 1.97605e-06 1.73167e-06 1.5099e-06 1.30998e-06 1.13089e-06 9.71471e-07 8.30435e-07 7.06413e-07 5.98002e-07 5.03793e-07 4.22402e-07 3.52489e-07 2.92781e-07 2.42084e-07 1.99289e-07 1.63383e-07 1.33449e-07 1.08665e-07 8.83083e-08 7.17454e-08 5.84329e-08 4.79118e-08 3.98029e-08 3.38026e-08 2.96793e-08 2.72698e-08 2.64773e-08 
3.54318e-08 3.64736e-08 3.96402e-08 4.50555e-08 5.29284e-08 6.35551e-08 7.73228e-08 9.47149e-08 1.16315e-07 1.42813e-07 1.75008e-07 2.13816e-07 2.60267e-07 3.1551e-07 3.80812e-07 4.57548e-07 5.47198e-07 6.5133e-07 7.71583e-07 9.09639e-07 1.0672e-06 1.24595e-06 1.44749e-06 1.67334e-06 1.92482e-06 2.20304e-06 2.50882e-06 2.84261e-06 3.20446e-06 3.59393e-06 4.01003e-06 4.45121e-06 4.91526e-06 5.39935e-06 5.89997e-06 6.41298e-06 6.93362e-06 7.45654e-06 7.97593e-06 8.48557e-06 8.97896e-06 9.44945e-06 9.8904e-06 1.02953e-05 1.0658e-05 1.09728e-05 1.12346e-05 1.14391e-05 1.15829e-05 1.16635e-05 1.16796e-05 1.16309e-05 1.15182e-05 1.13435e-05 1.11096e-05 1.08205e-05 1.04808e-05 1.0096e-05 9.67205e-06 9.21525e-06 8.73223e-06 8.22966e-06 7.71413e-06 7.19203e-06 6.66938e-06 6.15178e-06 5.64429e-06 5.15137e-06 4.67686e-06 4.22392e-06 3.79507e-06 3.39219e-06 3.01653e-06 2.66879e-06 2.34918e-06 2.05742e-06 1.79286e-06 1.55454e-06 1.34121e-06 1.15146e-06 9.83703e-07 8.36295e-07 7.07534e-07 5.95722e-07 4.99189e-07 4.16328e-07 3.4561e-07 2.85605e-07 2.34985e-07 1.92541e-07 1.57178e-07 1.27918e-07 1.03897e-07 8.43634e-08 6.86711e-08 5.62748e-08 4.67244e-08 3.96598e-08 3.48063e-08 3.19706e-08 3.10381e-08 
4.24833e-08 4.37375e-08 4.75502e-08 5.40716e-08 6.35551e-08 7.636e-08 9.29569e-08 1.13933e-07 1.39998e-07 1.7199e-07 2.10885e-07 2.57797e-07 3.13986e-07 3.80855e-07 4.59953e-07 5.52967e-07 6.61713e-07 7.88118e-07 9.34198e-07 1.10203e-06 1.29373e-06 1.51136e-06 1.75694e-06 2.03235e-06 2.33925e-06 2.67906e-06 3.05281e-06 3.46113e-06 3.90411e-06 4.38126e-06 4.89143e-06 5.43275e-06 6.00255e-06 6.59738e-06 7.21295e-06 7.84418e-06 8.4852e-06 9.12944e-06 9.76971e-06 1.03983e-05 1.10072e-05 1.1588e-05 1.21327e-05 1.2633e-05 1.30813e-05 1.34705e-05 1.37943e-05 1.40472e-05 1.4225e-05 1.43247e-05 1.43446e-05 1.42843e-05 1.41448e-05 1.39285e-05 1.36392e-05 1.32815e-05 1.28615e-05 1.23859e-05 1.1862e-05 1.12979e-05 1.07016e-05 1.00815e-05 9.4458e-06 8.80236e-06 8.15865e-06 7.52158e-06 6.89737e-06 6.29152e-06 5.7087e-06 5.1528e-06 4.62686e-06 4.13313e-06 3.67314e-06 3.24767e-06 2.85692e-06 2.5005e-06 2.17757e-06 1.8869e-06 1.62692e-06 1.39585e-06 1.19173e-06 1.01251e-06 8.5608e-07 7.20343e-07 6.03243e-07 5.02803e-07 4.17144e-07 3.44512e-07 2.83284e-07 2.3198e-07 1.89263e-07 1.5394e-07 1.24959e-07 1.01406e-07 8.24945e-08 6.75623e-08 5.6063e-08 4.75598e-08 4.17196e-08 3.83081e-08 3.71863e-08 
5.16098e-08 5.31398e-08 5.77909e-08 6.57482e-08 7.73228e-08 9.29569e-08 1.13229e-07 1.38863e-07 1.70732e-07 2.09872e-07 2.57485e-07 3.14948e-07 3.8382e-07 4.65839e-07 5.62927e-07 6.77177e-07 8.10849e-07 9.66343e-07 1.14618e-06 1.35295e-06 1.58931e-06 1.85785e-06 2.16113e-06 2.5015e-06 2.88112e-06 3.30176e-06 3.7648e-06 4.27107e-06 4.82075e-06 5.41331e-06 6.04737e-06 6.72066e-06 7.42991e-06 8.17087e-06 8.93822e-06 9.72564e-06 1.05258e-05 1.13305e-05 1.21308e-05 1.29168e-05 1.36787e-05 1.44059e-05 1.5088e-05 1.57148e-05 1.62767e-05 1.67647e-05 1.71707e-05 1.74879e-05 1.77109e-05 1.7836e-05 1.78608e-05 1.7785e-05 1.76099e-05 1.73385e-05 1.69755e-05 1.6527e-05 1.60003e-05 1.54042e-05 1.47478e-05 1.40413e-05 1.3295e-05 1.25193e-05 1.17245e-05 1.09205e-05 1.01167e-05 9.32175e-06 8.54339e-06 7.78846e-06 7.06279e-06 6.37115e-06 5.7173e-06 5.104e-06 4.53305e-06 4.00538e-06 3.52117e-06 3.07986e-06 2.68035e-06 2.32104e-06 1.99993e-06 1.71476e-06 1.46305e-06 1.24222e-06 1.04963e-06 8.82641e-07 7.38693e-07 6.15316e-07 5.10175e-07 4.21088e-07 3.46043e-07 2.83203e-07 2.30916e-07 1.87708e-07 1.5228e-07 1.23503e-07 1.0041e-07 8.21854e-08 6.81563e-08 5.77861e-08 5.06656e-08 4.65071e-08 4.51398e-08 
6.31253e-08 6.50042e-08 7.07169e-08 8.0492e-08 9.47149e-08 1.13933e-07 1.38863e-07 1.70401e-07 2.09632e-07 2.5784e-07 3.16521e-07 3.87387e-07 4.72378e-07 5.73664e-07 6.93643e-07 8.34933e-07 1.00036e-06 1.19294e-06 1.41584e-06 1.67233e-06 1.96574e-06 2.29938e-06 2.67647e-06 3.10003e-06 3.57281e-06 4.09711e-06 4.67474e-06 5.3068e-06 5.99362e-06 6.73462e-06 7.52816e-06 8.37145e-06 9.26049e-06 1.019e-05 1.11533e-05 1.21425e-05 1.31484e-05 1.41607e-05 1.5168e-05 1.61581e-05 1.71182e-05 1.80351e-05 1.88956e-05 1.96867e-05 2.03961e-05 2.10123e-05 2.15251e-05 2.19258e-05 2.22077e-05 2.23656e-05 2.23969e-05 2.2301e-05 2.20796e-05 2.17365e-05 2.12778e-05 2.07111e-05 2.0046e-05 1.92933e-05 1.84651e-05 1.75739e-05 1.66331e-05 1.56557e-05 1.46549e-05 1.36432e-05 1.26323e-05 1.16333e-05 1.06559e-05 9.70856e-06 8.79866e-06 7.93211e-06 7.11357e-06 6.34641e-06 5.63281e-06 4.97387e-06 4.36968e-06 3.8195e-06 3.32183e-06 2.87461e-06 2.47528e-06 2.12092e-06 1.80841e-06 1.53445e-06 1.29571e-06 1.08888e-06 9.10723e-07 7.5814e-07 6.28207e-07 5.18193e-07 4.25585e-07 3.48094e-07 2.83658e-07 2.30445e-07 1.8684e-07 1.51443e-07 1.23052e-07 1.00657e-07 8.34248e-08 7.06917e-08 6.19513e-08 5.68476e-08 5.51697e-08 
7.74084e-08 7.97217e-08 8.67558e-08 9.87943e-08 1.16315e-07 1.39998e-07 1.70732e-07 2.09632e-07 2.58046e-07 3.17572e-07 3.90074e-07 4.77687e-07 5.82834e-07 7.08225e-07 8.56863e-07 1.03203e-06 1.23728e-06 1.47639e-06 1.75336e-06 2.07232e-06 2.43748e-06 2.85305e-06 3.32311e-06 3.85155e-06 4.44187e-06 5.09708e-06 5.81952e-06 6.6107e-06 7.47116e-06 8.40025e-06 9.39604e-06 1.04551e-05 1.15725e-05 1.27417e-05 1.39544e-05 1.52006e-05 1.64688e-05 1.77458e-05 1.90175e-05 2.02681e-05 2.14816e-05 2.26411e-05 2.37297e-05 2.47311e-05 2.56293e-05 2.64098e-05 2.70596e-05 2.75674e-05 2.79245e-05 2.81247e-05 2.81642e-05 2.80426e-05 2.77618e-05 2.73268e-05 2.67453e-05 2.60272e-05 2.51847e-05 2.42316e-05 2.31834e-05 2.20561e-05 2.08665e-05 1.96315e-05 1.83676e-05 1.70908e-05 1.5816e-05 1.4557e-05 1.33261e-05 1.21341e-05 1.09901e-05 9.90145e-06 8.87397e-06 7.91179e-06 7.01754e-06 6.19247e-06 5.43661e-06 4.7489e-06 4.12736e-06 3.56929e-06 3.0714e-06 2.62996e-06 2.24096e-06 1.90023e-06 1.60354e-06 1.34671e-06 1.12565e-06 9.36476e-07 7.75501e-07 6.39304e-07 5.24736e-07 4.28936e-07 3.49331e-07 2.83631e-07 2.29828e-07 1.86177e-07 1.51185e-07 1.23596e-07 1.02376e-07 8.67026e-08 7.59465e-08 6.96671e-08 6.76028e-08 
9.49056e-08 9.77531e-08 1.06412e-07 1.21235e-07 1.42813e-07 1.7199e-07 2.09872e-07 2.5784e-07 3.17572e-07 3.91058e-07 4.80615e-07 5.88908e-07 7.1896e-07 8.74159e-07 1.05826e-06 1.27538e-06 1.52997e-06 1.82681e-06 2.1709e-06 2.56747e-06 3.02186e-06 3.53939e-06 4.12528e-06 4.78447e-06 5.52148e-06 6.3402e-06 7.2437e-06 8.23403e-06 9.31199e-06 1.04769e-05 1.17266e-05 1.30567e-05 1.44613e-05 1.59322e-05 1.7459e-05 1.90292e-05 2.06283e-05 2.22398e-05 2.38455e-05 2.54258e-05 2.69599e-05 2.84267e-05 2.98046e-05 3.10726e-05 3.22104e-05 3.31995e-05 3.4023e-05 3.46669e-05 3.51197e-05 3.53734e-05 3.54235e-05 3.5269e-05 3.49127e-05 3.43609e-05 3.36235e-05 3.27132e-05 3.16455e-05 3.04383e-05 2.9111e-05 2.76845e-05 2.61799e-05 2.46188e-05 2.30223e-05 2.14106e-05 1.98026e-05 1.82157e-05 1.66654e-05 1.51653e-05 1.37268e-05 1.2359e-05 1.10692e-05 9.8624e-06 8.74177e-06 7.70873e-06 6.76318e-06 5.90362e-06 5.12745e-06 4.43114e-06 3.81044e-06 3.26058e-06 2.77645e-06 2.35275e-06 1.98412e-06 1.66525e-06 1.39102e-06 1.15652e-06 9.57131e-07 7.88555e-07 6.46853e-07 5.28445e-07 4.30119e-07 3.49022e-07 2.8265e-07 2.28833e-07 1.85714e-07 1.51734e-07 1.2561e-07 1.06321e-07 9.30872e-08 8.53629e-08 8.28239e-08 
1.16134e-07 1.19632e-07 1.3027e-07 1.48485e-07 1.75008e-07 2.10885e-07 2.57485e-07 3.16521e-07 3.90074e-07 4.80615e-07 5.91026e-07 7.24622e-07 8.85168e-07 1.07689e-06 1.30448e-06 1.57309e-06 1.8883e-06 2.25609e-06 2.68278e-06 3.17494e-06 3.73932e-06 4.38266e-06 5.1116e-06 5.93245e-06 6.851e-06 7.87227e-06 9.00031e-06 1.02378e-05 1.15861e-05 1.30444e-05 1.46101e-05 1.62781e-05 1.80411e-05 1.98888e-05 2.18083e-05 2.3784e-05 2.57976e-05 2.78284e-05 2.98533e-05 3.18475e-05 3.37848e-05 3.56381e-05 3.73801e-05 3.89838e-05 4.04237e-05 4.16756e-05 4.27184e-05 4.35338e-05 4.41073e-05 4.44286e-05 4.44919e-05 4.4296e-05 4.38444e-05 4.31453e-05 4.22111e-05 4.10583e-05 3.97068e-05 3.81793e-05 3.65008e-05 3.46976e-05 3.2797e-05 3.08263e-05 2.88121e-05 2.67803e-05 2.47547e-05 2.27572e-05 2.08074e-05 1.89223e-05 1.71162e-05 1.54004e-05 1.37838e-05 1.22725e-05 1.08705e-05 9.57922e-06 8.39835e-06 7.32584e-06 6.35824e-06 5.49097e-06 4.71855e-06 4.03489e-06 3.43346e-06 2.90755e-06 2.45036e-06 2.05523e-06 1.71568e-06 1.42554e-06 1.17904e-06 9.70783e-07 7.95854e-07 6.49784e-07 5.2857e-07 4.2866e-07 3.46942e-07 2.80719e-07 2.27689e-07 1.8592e-07 1.53821e-07 1.30128e-07 1.13878e-07 1.04395e-07 1.01278e-07 
1.41681e-07 1.45966e-07 1.58997e-07 1.81312e-07 2.13816e-07 2.57797e-07 3.14948e-07 3.87387e-07 4.77687e-07 5.88908e-07 7.24622e-07 8.8894e-07 1.08654e-06 1.32268e-06 1.60321e-06 1.93454e-06 2.32366e-06 2.77805e-06 3.30563e-06 3.91467e-06 4.61367e-06 5.41116e-06 6.31554e-06 7.33485e-06 8.47652e-06 9.74701e-06 1.11516e-05 1.26939e-05 1.43758e-05 1.61967e-05 1.81534e-05 2.024e-05 2.24473e-05 2.47627e-05 2.71702e-05 2.96504e-05 3.21802e-05 3.47336e-05 3.72817e-05 3.97929e-05 4.22341e-05 4.45709e-05 4.67686e-05 4.8793e-05 5.06112e-05 5.21929e-05 5.35108e-05 5.45415e-05 5.52665e-05 5.56727e-05 5.57525e-05 5.55045e-05 5.49332e-05 5.4049e-05 5.2868e-05 5.1411e-05 4.97036e-05 4.77747e-05 4.56562e-05 4.33817e-05 4.09858e-05 3.85032e-05 3.59678e-05 3.3412e-05 3.0866e-05 2.83576e-05 2.59111e-05 2.35479e-05 2.12856e-05 1.91385e-05 1.71174e-05 1.52299e-05 1.34803e-05 1.18704e-05 1.03996e-05 9.06498e-06 7.86203e-06 6.7848e-06 5.82625e-06 4.97861e-06 4.23358e-06 3.58266e-06 3.01729e-06 2.52906e-06 2.10984e-06 1.75193e-06 1.44807e-06 1.19156e-06 9.76254e-07 7.96596e-07 6.47611e-07 5.24891e-07 4.2458e-07 3.43337e-07 2.78314e-07 2.27123e-07 1.87802e-07 1.58788e-07 1.38894e-07 1.27286e-07 1.23472e-07 
1.72211e-07 1.7744e-07 1.93342e-07 2.2058e-07 2.60267e-07 3.13986e-07 3.8382e-07 4.72378e-07 5.82834e-07 7.1896e-07 8.85168e-07 1.08654e-06 1.32887e-06 1.61868e-06 1.96321e-06 2.37046e-06 2.84911e-06 3.4085e-06 4.05854e-06 4.8096e-06 5.67233e-06 6.6575e-06 7.77573e-06 9.03723e-06 1.04515e-05 1.20268e-05 1.377e-05 1.5686e-05 1.77774e-05 2.00438e-05 2.24817e-05 2.50839e-05 2.78391e-05 3.07321e-05 3.3743e-05 3.68474e-05 4.00169e-05 4.32186e-05 4.64162e-05 4.95699e-05 5.2638e-05 5.55769e-05 5.83425e-05 6.08915e-05 6.31821e-05 6.51755e-05 6.68369e-05 6.81366e-05 6.9051e-05 6.95633e-05 6.96638e-05 6.93506e-05 6.86296e-05 6.75141e-05 6.60244e-05 6.41875e-05 6.20357e-05 5.96061e-05 5.6939e-05 5.40773e-05 5.10649e-05 4.79458e-05 4.47627e-05 4.15567e-05 3.83657e-05 3.52245e-05 3.21637e-05 2.92097e-05 2.63847e-05 2.3706e-05 2.1187e-05 1.88366e-05 1.66603e-05 1.46597e-05 1.28337e-05 1.11784e-05 9.68779e-06 8.35426e-06 7.16876e-06 6.12139e-06 5.20166e-06 4.39882e-06 3.7021e-06 3.10095e-06 2.58523e-06 2.14527e-06 1.77205e-06 1.45723e-06 1.19319e-06 9.73015e-07 7.90561e-07 6.40374e-07 5.17687e-07 4.18381e-07 3.38946e-07 2.76439e-07 2.28447e-07 1.93047e-07 1.68782e-07 1.54626e-07 1.49975e-07 
2.0846e-07 2.14814e-07 2.34142e-07 2.67253e-07 3.1551e-07 3.80855e-07 4.65839e-07 5.73664e-07 7.08225e-07 8.74159e-07 1.07689e-06 1.32268e-06 1.61868e-06 1.97292e-06 2.39439e-06 2.89296e-06 3.47942e-06 4.16539e-06 4.9632e-06 5.88581e-06 6.94654e-06 8.15893e-06 9.53636e-06 1.10918e-05 1.28372e-05 1.47833e-05 1.69389e-05 1.93107e-05 2.19021e-05 2.47132e-05 2.77401e-05 3.09743e-05 3.44022e-05 3.80049e-05 4.17582e-05 4.56318e-05 4.95903e-05 5.35926e-05 5.75932e-05 6.15423e-05 6.53871e-05 6.90726e-05 7.25432e-05 7.57439e-05 7.86216e-05 8.11271e-05 8.32161e-05 8.48508e-05 8.60011e-05 8.66454e-05 8.67716e-05 8.63772e-05 8.54696e-05 8.40659e-05 8.21921e-05 7.98823e-05 7.71778e-05 7.41258e-05 7.07775e-05 6.71872e-05 6.34105e-05 5.95031e-05 5.55188e-05 5.15092e-05 4.75222e-05 4.36009e-05 3.97837e-05 3.61034e-05 3.25871e-05 2.92565e-05 2.61276e-05 2.32113e-05 2.05135e-05 1.80362e-05 1.57774e-05 1.37318e-05 1.18916e-05 1.02469e-05 8.78627e-06 7.49702e-06 6.36596e-06 5.37955e-06 4.5243e-06 3.78702e-06 3.15505e-06 2.61637e-06 2.15979e-06 1.77495e-06 1.45242e-06 1.18368e-06 9.61143e-07 7.78082e-07 6.28638e-07 5.07746e-07 4.11099e-07 3.35086e-07 2.76749e-07 2.33736e-07 2.0426e-07 1.87068e-07 1.81419e-07 
2.51236e-07 2.58923e-07 2.82312e-07 3.22388e-07 3.80812e-07 4.59953e-07 5.62927e-07 6.93643e-07 8.56863e-07 1.05826e-06 1.30448e-06 1.60321e-06 1.96321e-06 2.39439e-06 2.90778e-06 3.51559e-06 4.23115e-06 5.06884e-06 6.04397e-06 7.17266e-06 8.47154e-06 9.95753e-06 1.16475e-05 1.35576e-05 1.57033e-05 1.80981e-05 2.07536e-05 2.36783e-05 2.68774e-05 3.03513e-05 3.40959e-05 3.81011e-05 4.23508e-05 4.6822e-05 5.14848e-05 5.63021e-05 6.12297e-05 6.62168e-05 7.12063e-05 7.6136e-05 8.09395e-05 8.55477e-05 8.98902e-05 9.38976e-05 9.75027e-05 0.000100643 0.000103262 0.000105313 0.000106756 0.000107564 0.000107722 0.000107227 0.000106088 0.000104326 0.000101975 9.90792e-05 9.56897e-05 9.18667e-05 8.76753e-05 8.31843e-05 7.84638e-05 7.35837e-05 6.86122e-05 6.36137e-05 5.8648e-05 5.37692e-05 4.90247e-05 4.44551e-05 4.00939e-05 3.59674e-05 3.20949e-05 2.84894e-05 2.51579e-05 2.21018e-05 1.93182e-05 1.68e-05 1.45372e-05 1.25168e-05 1.07242e-05 9.14362e-06 7.75831e-06 6.55131e-06 5.50578e-06 4.60529e-06 3.8341e-06 3.17732e-06 2.6211e-06 2.15266e-06 1.76037e-06 1.43376e-06 1.16348e-06 9.41312e-07 7.60057e-07 6.13524e-07 4.96443e-07 4.04407e-07 3.33804e-07 2.81766e-07 2.46116e-07 2.25327e-07 2.18497e-07 
3.01414e-07 3.10673e-07 3.38848e-07 3.87134e-07 4.57548e-07 5.52967e-07 6.77177e-07 8.34933e-07 1.03203e-06 1.27538e-06 1.57309e-06 1.93454e-06 2.37046e-06 2.89296e-06 3.51559e-06 4.25335e-06 5.12264e-06 6.14119e-06 7.32796e-06 8.70288e-06 1.02867e-05 1.21004e-05 1.41651e-05 1.65013e-05 1.91283e-05 2.20635e-05 2.53217e-05 2.89142e-05 3.2848e-05 3.71247e-05 4.17398e-05 4.66817e-05 5.19311e-05 5.74603e-05 6.32328e-05 6.92031e-05 7.53166e-05 8.15103e-05 8.77132e-05 9.38476e-05 9.98303e-05 0.000105575 0.000110992 0.000115995 0.000120498 0.000124423 0.000127698 0.000130263 0.000132068 0.00013308 0.000133277 0.000132657 0.00013123 0.000129026 0.000126086 0.000122464 0.000118228 0.000113453 0.000108222 0.000102621 9.6739e-05 9.06634e-05 8.44797e-05 7.82687e-05 7.21048e-05 6.60551e-05 6.01785e-05 5.45248e-05 4.9135e-05 4.40411e-05 3.92662e-05 3.48256e-05 3.0727e-05 2.69717e-05 2.35549e-05 2.04675e-05 1.7696e-05 1.52242e-05 1.30335e-05 1.11038e-05 9.41419e-06 7.94354e-06 6.67086e-06 5.57575e-06 4.63874e-06 3.84145e-06 3.16681e-06 2.59911e-06 2.12408e-06 1.72889e-06 1.4021e-06 1.13367e-06 9.14813e-07 7.37995e-07 5.96798e-07 4.85861e-07 4.00798e-07 3.38126e-07 2.95203e-07 2.7018e-07 2.61959e-07 