<?xml version="1.0"?>
<VTKFile type="StructuredGrid" version="0.1">
    <StructuredGrid WholeExtent="0 100 0 100 0 0">
        <Piece Extent="0 100 0 100 0 0">
            <Points>
                <DataArray type="Float64" NumberOfComponents="3" format="ascii">
-15 -15 0
-15 -14.7 0
-15 -14.4 0
-15 -14.1 0
-15 -13.8 0
-15 -13.5 0
-15 -13.2 0
-15 -12.9 0
-15 -12.6 0
-15 -12.3 0
-15 -12 0
-15 -11.7 0
-15 -11.4 0
-15 -11.1 0
-15 -10.8 0
-15 -10.5 0
-15 -10.2 0
-15 -9.9 0
-15 -9.6 0
-15 -9.3 0
-15 -9 0
-15 -8.7 0
-15 -8.4 0
-15 -8.1 0
-15 -7.8 0
-15 -7.5 0
-15 -7.2 0
-15 -6.9 0
-15 -6.6 0
-15 -6.3 0
-15 -6 0
-15 -5.7 0
-15 -5.4 0
-15 -5.1 0
-15 -4.8 0
-15 -4.5 0
-15 -4.2 0
-15 -3.9 0
-15 -3.6 0
-15 -3.3 0
-15 -3 0
-15 -2.7 0
-15 -2.4 0
-15 -2.1 0
-15 -1.8 0
-15 -1.5 0
-15 -1.2 0
-15 -0.9 0
-15 -0.6 0
-15 -0.3 0
-15 0 0
-15 0.3 0
-15 0.6 0
-15 0.9 0
-15 1.2 0
-15 1.5 0
-15 1.8 0
-15 2.1 0
-15 2.4 0
-15 2.7 0
-15 3 0
-15 3.3 0
-15 3.6 0
-15 3.9 0
-15 4.2 0
-15 4.5 0
-15 4.8 0
-15 5.1 0
-15 5.4 0
-15 5.7 0
-15 6 0
-15 6.3 0
-15 6.6 0
-15 6.9 0
-15 7.2 0
-15 7.5 0
-15 7.8 0
-15 8.1 0
-15 8.4 0
-15 8.7 0
-15 9 0
-15 9.3 0
-15 9.6 0
-15 9.9 0
-15 10.2 0
-15 10.5 0
-15 10.8 0
-15 11.1 0
-15 11.4 0
-15 11.7 0
-15 12 0
-15 12.3 0
-15 12.6 0
-15 12.9 0
-15 13.2 0
-15 13.5 0
-15 13.8 0
-15 14.1 0
-15 14.4 0
-15 14.7 0
-15 15 0
-14.7 -15 0
-14.7 -14.7 0
-14.7 -14.4 0
-14.7 -14.1 0
-14.7 -13.8 0
-14.7 -13.5 0
-14.7 -13.2 0
-14.7 -12.9 0
-14.7 -12.6 0
-14.7 -12.3 0
-14.7 -12 0
-14.7 -11.7 0
-14.7 -11.4 0
-14.7 -11.1 0
-14.7 -10.8 0
-14.7 -10.5 0
-14.7 -10.2 0
-14.7 -9.9 0
-14.7 -9.6 0
-14.7 -9.3 0
-14.7 -9 0
-14.7 -8.7 0
-14.7 -8.4 0
-14.7 -8.1 0
-14.7 -7.8 0
-14.7 -7.5 0
-14.7 -7.2 0
-14.7 -6.9 0
-14.7 -6.6 0
-14.7 -6.3 0
-14.7 -6 0
-14.7 -5.7 0
-14.7 -5.4 0
-14.7 -5.1 0
-14.7 -4.8 0
-14.7 -4.5 0
-14.7 -4.2 0
-14.7 -3.9 0
-14.7 -3.6 0
-14.7 -3.3 0
-14.7 -3 0
-14.7 -2.7 0
-14.7 -2.4 0
-14.7 -2.1 0
-14.7 -1.8 0
-14.7 -1.5 0
-14.7 -1.2 0
-14.7 -0.9 0
-14.7 -0.6 0
-14.7 -0.3 0
-14.7 0 0
-14.7 0.3 0
-14.7 0.6 0
-14.7 0.9 0
-14.7 1.2 0
-14.7 1.5 0
-14.7 1.8 0
-14.7 2.1 0
-14.7 2.4 0
-14.7 2.7 0
-14.7 3 0
-14.7 3.3 0
-14.7 3.6 0
-14.7 3.9 0
-14.7 4.2 0
-14.7 4.5 0
-14.7 4.8 0
-14.7 5.1 0
-14.7 5.4 0
-14.7 5.7 0
-14.7 6 0
-14.7 6.3 0
-14.7 6.6 0
-14.7 6.9 0
-14.7 7.2 0
-14.7 7.5 0
-14.7 7.8 0
-14.7 8.1 0
-14.7 8.4 0
-14.7 8.7 0
-14.7 9 0
-14.7 9.3 0
-14.7 9.6 0
-14.7 9.9 0
-14.7 10.2 0
-14.7 10.5 0
-14.7 10.8 0
-14.7 11.1 0
-14.7 11.4 0
-14.7 11.7 0
-14.7 12 0
-14.7 12.3 0
-14.7 12.6 0
-14.7 12.9 0
-14.7 13.2 0
-14.7 13.5 0
-14.7 13.8 0
-14.7 14.1 0
-14.7 14.4 0
-14.7 14.7 0
-14.7 15 0
-14.4 -15 0
-14.4 -14.7 0
-14.4 -14.4 0
-14.4 -14.1 0
-14.4 -13.8 0
-14.4 -13.5 0
-14.4 -13.2 0
-14.4 -12.9 0
-14.4 -12.6 0
-14.4 -12.3 0
-14.4 -12 0
-14.4 -11.7 0
-14.4 -11.4 0
-14.4 -11.1 0
-14.4 -10.8 0
-14.4 -10.5 0
-14.4 -10.2 0
-14.4 -9.9 0
-14.4 -9.6 0
-14.4 -9.3 0
-14.4 -9 0
-14.4 -8.7 0
-14.4 -8.4 0
-14.4 -8.1 0
-14.4 -7.8 0
-14.4 -7.5 0
-14.4 -7.2 0
-14.4 -6.9 0
-14.4 -6.6 0
-14.4 -6.3 0
-14.4 -6 0
-14.4 -5.7 0
-14.4 -5.4 0
-14.4 -5.1 0
-14.4 -4.8 0
-14.4 -4.5 0
-14.4 -4.2 0
-14.4 -3.9 0
-14.4 -3.6 0
-14.4 -3.3 0
-14.4 -3 0
-14.4 -2.7 0
-14.4 -2.4 0
-14.4 -2.1 0
-14.4 -1.8 0
-14.4 -1.5 0
-14.4 -1.2 0
-14.4 -0.9 0
-14.4 -0.6 0
-14.4 -0.3 0
-14.4 0 0
-14.4 0.3 0
-14.4 0.6 0
-14.4 0.9 0
-14.4 1.2 0
-14.4 1.5 0
-14.4 1.8 0
-14.4 2.1 0
-14.4 2.4 0
-14.4 2.7 0
-14.4 3 0
-14.4 3.3 0
-14.4 3.6 0
-14.4 3.9 0
-14.4 4.2 0
-14.4 4.5 0
-14.4 4.8 0
-14.4 5.1 0
-14.4 5.4 0
-14.4 5.7 0
-14.4 6 0
-14.4 6.3 0
-14.4 6.6 0
-14.4 6.9 0
-14.4 7.2 0
-14.4 7.5 0
-14.4 7.8 0
-14.4 8.1 0
-14.4 8.4 0
-14.4 8.7 0
-14.4 9 0
-14.4 9.3 0
-14.4 9.6 0
-14.4 9.9 0
-14.4 10.2 0
-14.4 10.5 0
-14.4 10.8 0
-14.4 11.1 0
-14.4 11.4 0
-14.4 11.7 0
-14.4 12 0
-14.4 12.3 0
-14.4 12.6 0
-14.4 12.9 0
-14.4 13.2 0
-14.4 13.5 0
-14.4 13.8 0
-14.4 14.1 0
-14.4 14.4 0
-14.4 14.7 0
-14.4 15 0
-14.1 -15 0
-14.1 -14.7 0
-14.1 -14.4 0
-14.1 -14.1 0
-14.1 -13.8 0
-14.1 -13.5 0
-14.1 -13.2 0
-14.1 -12.9 0
-14.1 -12.6 0
-14.1 -12.3 0
-14.1 -12 0
-14.1 -11.7 0
-14.1 -11.4 0
-14.1 -11.1 0
-14.1 -10.8 0
-14.1 -10.5 0
-14.1 -10.2 0
-14.1 -9.9 0
-14.1 -9.6 0
-14.1 -9.3 0
-14.1 -9 0
-14.1 -8.7 0
-14.1 -8.4 0
-14.1 -8.1 0
-14.1 -7.8 0
-14.1 -7.5 0
-14.1 -7.2 0
-14.1 -6.9 0
-14.1 -6.6 0
-14.1 -6.3 0
-14.1 -6 0
-14.1 -5.7 0
-14.1 -5.4 0
-14.1 -5.1 0
-14.1 -4.8 0
-14.1 -4.5 0
-14.1 -4.2 0
-14.1 -3.9 0
-14.1 -3.6 0
-14.1 -3.3 0
-14.1 -3 0
-14.1 -2.7 0
-14.1 -2.4 0
-14.1 -2.1 0
-14.1 -1.8 0
-14.1 -1.5 0
-14.1 -1.2 0
-14.1 -0.9 0
-14.1 -0.6 0
-14.1 -0.3 0
-14.1 0 0
-14.1 0.3 0
-14.1 0.6 0
-14.1 0.9 0
-14.1 1.2 0
-14.1 1.5 0
-14.1 1.8 0
-14.1 2.1 0
-14.1 2.4 0
-14.1 2.7 0
-14.1 3 0
-14.1 3.3 0
-14.1 3.6 0
-14.1 3.9 0
-14.1 4.2 0
-14.1 4.5 0
-14.1 4.8 0
-14.1 5.1 0
-14.1 5.4 0
-14.1 5.7 0
-14.1 6 0
-14.1 6.3 0
-14.1 6.6 0
-14.1 6.9 0
-14.1 7.2 0
-14.1 7.5 0
-14.1 7.8 0
-14.1 8.1 0
-14.1 8.4 0
-14.1 8.7 0
-14.1 9 0
-14.1 9.3 0
-14.1 9.6 0
-14.1 9.9 0
-14.1 10.2 0
-14.1 10.5 0
-14.1 10.8 0
-14.1 11.1 0
-14.1 11.4 0
-14.1 11.7 0
-14.1 12 0
-14.1 12.3 0
-14.1 12.6 0
-14.1 12.9 0
-14.1 13.2 0
-14.1 13.5 0
-14.1 13.8 0
-14.1 14.1 0
-14.1 14.4 0
-14.1 14.7 0
-14.1 15 0
-13.8 -15 0
-13.8 -14.7 0
-13.8 -14.4 0
-13.8 -14.1 0
-13.8 -13.8 0
-13.8 -13.5 0
-13.8 -13.2 0
-13.8 -12.9 0
-13.8 -12.6 0
-13.8 -12.3 0
-13.8 -12 0
-13.8 -11.7 0
-13.8 -11.4 0
-13.8 -11.1 0
-13.8 -10.8 0
-13.8 -10.5 0
-13.8 -10.2 0
-13.8 -9.9 0
-13.8 -9.6 0
-13.8 -9.3 0
-13.8 -9 0
-13.8 -8.7 0
-13.8 -8.4 0
-13.8 -8.1 0
-13.8 -7.8 0
-13.8 -7.5 0
-13.8 -7.2 0
-13.8 -6.9 0
-13.8 -6.6 0
-13.8 -6.3 0
-13.8 -6 0
-13.8 -5.7 0
-13.8 -5.4 0
-13.8 -5.1 0
-13.8 -4.8 0
-13.8 -4.5 0
-13.8 -4.2 0
-13.8 -3.9 0
-13.8 -3.6 0
-13.8 -3.3 0
-13.8 -3 0
-13.8 -2.7 0
-13.8 -2.4 0
-13.8 -2.1 0
-13.8 -1.8 0
-13.8 -1.5 0
-13.8 -1.2 0
-13.8 -0.9 0
-13.8 -0.6 0
-13.8 -0.3 0
-13.8 0 0
-13.8 0.3 0
-13.8 0.6 0
-13.8 0.9 0
-13.8 1.2 0
-13.8 1.5 0
-13.8 1.8 0
-13.8 2.1 0
-13.8 2.4 0
-13.8 2.7 0
-13.8 3 0
-13.8 3.3 0
-13.8 3.6 0
-13.8 3.9 0
-13.8 4.2 0
-13.8 4.5 0
-13.8 4.8 0
-13.8 5.1 0
-13.8 5.4 0
-13.8 5.7 0
-13.8 6 0
-13.8 6.3 0
-13.8 6.6 0
-13.8 6.9 0
-13.8 7.2 0
-13.8 7.5 0
-13.8 7.8 0
-13.8 8.1 0
-13.8 8.4 0
-13.8 8.7 0
-13.8 9 0
-13.8 9.3 0
-13.8 9.6 0
-13.8 9.9 0
-13.8 10.2 0
-13.8 10.5 0
-13.8 10.8 0
-13.8 11.1 0
-13.8 11.4 0
-13.8 11.7 0
-13.8 12 0
-13.8 12.3 0
-13.8 12.6 0
-13.8 12.9 0
-13.8 13.2 0
-13.8 13.5 0
-13.8 13.8 0
-13.8 14.1 0
-13.8 14.4 0
-13.8 14.7 0
-13.8 15 0
-13.5 -15 0
-13.5 -14.7 0
-13.5 -14.4 0
-13.5 -14.1 0
-13.5 -13.8 0
-13.5 -13.5 0
-13.5 -13.2 0
-13.5 -12.9 0
-13.5 -12.6 0
-13.5 -12.3 0
-13.5 -12 0
-13.5 -11.7 0
-13.5 -11.4 0
-13.5 -11.1 0
-13.5 -10.8 0
-13.5 -10.5 0
-13.5 -10.2 0
-13.5 -9.9 0
-13.5 -9.6 0
-13.5 -9.3 0
-13.5 -9 0
-13.5 -8.7 0
-13.5 -8.4 0
-13.5 -8.1 0
-13.5 -7.8 0
-13.5 -7.5 0
-13.5 -7.2 0
-13.5 -6.9 0
-13.5 -6.6 0
-13.5 -6.3 0
-13.5 -6 0
-13.5 -5.7 0
-13.5 -5.4 0
-13.5 -5.1 0
-13.5 -4.8 0
-13.5 -4.5 0
-13.5 -4.2 0
-13.5 -3.9 0
-13.5 -3.6 0
-13.5 -3.3 0
-13.5 -3 0
-13.5 -2.7 0
-13.5 -2.4 0
-13.5 -2.1 0
-13.5 -1.8 0
-13.5 -1.5 0
-13.5 -1.2 0
-13.5 -0.9 0
-13.5 -0.6 0
-13.5 -0.3 0
-13.5 0 0
-13.5 0.3 0
-13.5 0.6 0
-13.5 0.9 0
-13.5 1.2 0
-13.5 1.5 0
-13.5 1.8 0
-13.5 2.1 0
-13.5 2.4 0
-13.5 2.7 0
-13.5 3 0
-13.5 3.3 0
-13.5 3.6 0
-13.5 3.9 0
-13.5 4.2 0
-13.5 4.5 0
-13.5 4.8 0
-13.5 5.1 0
-13.5 5.4 0
-13.5 5.7 0
-13.5 6 0
-13.5 6.3 0
-13.5 6.6 0
-13.5 6.9 0
-13.5 7.2 0
-13.5 7.5 0
-13.5 7.8 0
-13.5 8.1 0
-13.5 8.4 0
-13.5 8.7 0
-13.5 9 0
-13.5 9.3 0
-13.5 9.6 0
-13.5 9.9 0
-13.5 10.2 0
-13.5 10.5 0
-13.5 10.8 0
-13.5 11.1 0
-13.5 11.4 0
-13.5 11.7 0
-13.5 12 0
-13.5 12.3 0
-13.5 12.6 0
-13.5 12.9 0
-13.5 13.2 0
-13.5 13.5 0
-13.5 13.8 0
-13.5 14.1 0
-13.5 14.4 0
-13.5 14.7 0
-13.5 15 0
-13.2 -15 0
-13.2 -14.7 0
-13.2 -14.4 0
-13.2 -14.1 0
-13.2 -13.8 0
-13.2 -13.5 0
-13.2 -13.2 0
-13.2 -12.9 0
-13.2 -12.6 0
-13.2 -12.3 0
-13.2 -12 0
-13.2 -11.7 0
-13.2 -11.4 0
-13.2 -11.1 0
-13.2 -10.8 0
-13.2 -10.5 0
-13.2 -10.2 0
-13.2 -9.9 0
-13.2 -9.6 0
-13.2 -9.3 0
-13.2 -9 0
-13.2 -8.7 0
-13.2 -8.4 0
-13.2 -8.1 0
-13.2 -7.8 0
-13.2 -7.5 0
-13.2 -7.2 0
-13.2 -6.9 0
-13.2 -6.6 0
-13.2 -6.3 0
-13.2 -6 0
-13.2 -5.7 0
-13.2 -5.4 0
-13.2 -5.1 0
-13.2 -4.8 0
-13.2 -4.5 0
-13.2 -4.2 0
-13.2 -3.9 0
-13.2 -3.6 0
-13.2 -3.3 0
-13.2 -3 0
-13.2 -2.7 0
-13.2 -2.4 0
-13.2 -2.1 0
-13.2 -1.8 0
-13.2 -1.5 0
-13.2 -1.2 0
-13.2 -0.9 0
-13.2 -0.6 0
-13.2 -0.3 0
-13.2 0 0
-13.2 0.3 0
-13.2 0.6 0
-13.2 0.9 0
-13.2 1.2 0
-13.2 1.5 0
-13.2 1.8 0
-13.2 2.1 0
-13.2 2.4 0
-13.2 2.7 0
-13.2 3 0
-13.2 3.3 0
-13.2 3.6 0
-13.2 3.9 0
-13.2 4.2 0
-13.2 4.5 0
-13.2 4.8 0
-13.2 5.1 0
-13.2 5.4 0
-13.2 5.7 0
-13.2 6 0
-13.2 6.3 0
-13.2 6.6 0
-13.2 6.9 0
-13.2 7.2 0
-13.2 7.5 0
-13.2 7.8 0
-13.2 8.1 0
-13.2 8.4 0
-13.2 8.7 0
-13.2 9 0
-13.2 9.3 0
-13.2 9.6 0
-13.2 9.9 0
-13.2 10.2 0
-13.2 10.5 0
-13.2 10.8 0
-13.2 11.1 0
-13.2 11.4 0
-13.2 11.7 0
-13.2 12 0
-13.2 12.3 0
-13.2 12.6 0
-13.2 12.9 0
-13.2 13.2 0
-13.2 13.5 0
-13.2 13.8 0
-13.2 14.1 0
-13.2 14.4 0
-13.2 14.7 0
-13.2 15 0
-12.9 -15 0
-12.9 -14.7 0
-12.9 -14.4 0
-12.9 -14.1 0
-12.9 -13.8 0
-12.9 -13.5 0
-12.9 -13.2 0
-12.9 -12.9 0
-12.9 -12.6 0
-12.9 -12.3 0
-12.9 -12 0
-12.9 -11.7 0
-12.9 -11.4 0
-12.9 -11.1 0
-12.9 -10.8 0
-12.9 -10.5 0
-12.9 -10.2 0
-12.9 -9.9 0
-12.9 -9.6 0
-12.9 -9.3 0
-12.9 -9 0
-12.9 -8.7 0
-12.9 -8.4 0
-12.9 -8.1 0
-12.9 -7.8 0
-12.9 -7.5 0
-12.9 -7.2 0
-12.9 -6.9 0
-12.9 -6.6 0
-12.9 -6.3 0
-12.9 -6 0
-12.9 -5.7 0
-12.9 -5.4 0
-12.9 -5.1 0
-12.9 -4.8 0
-12.9 -4.5 0
-12.9 -4.2 0
-12.9 -3.9 0
-12.9 -3.6 0
-12.9 -3.3 0
-12.9 -3 0
-12.9 -2.7 0
-12.9 -2.4 0
-12.9 -2.1 0
-12.9 -1.8 0
-12.9 -1.5 0
-12.9 -1.2 0
-12.9 -0.9 0
-12.9 -0.6 0
-12.9 -0.3 0
-12.9 0 0
-12.9 0.3 0
-12.9 0.6 0
-12.9 0.9 0
-12.9 1.2 0
-12.9 1.5 0
-12.9 1.8 0
-12.9 2.1 0
-12.9 2.4 0
-12.9 2.7 0
-12.9 3 0
-12.9 3.3 0
-12.9 3.6 0
-12.9 3.9 0
-12.9 4.2 0
-12.9 4.5 0
-12.9 4.8 0
-12.9 5.1 0
-12.9 5.4 0
-12.9 5.7 0
-12.9 6 0
-12.9 6.3 0
-12.9 6.6 0
-12.9 6.9 0
-12.9 7.2 0
-12.9 7.5 0
-12.9 7.8 0
-12.9 8.1 0
-12.9 8.4 0
-12.9 8.7 0
-12.9 9 0
[...]
            <PointData>
                <DataArray type="Float64" Name="c1" format="ascii">
0.00107746 0.00107858 0.00108192 0.00108749 0.00109527 0.00110526 0.00111743 0.00113177 0.00114826 0.00116686 0.00118755 0.0012103 0.00123505 0.00126176 0.00129038 0.00132086 0.00135312 0.0013871 0.00142272 0.00145989 0.00149853 0.00153853 0.00157979 0.00162218 0.00166558 0.00170987 0.0017549 0.00180051 0.00184656 0.00189287 0.00193928 0.0019856 0.00203165 0.00207723 0.00212215 0.00216622 0.00220923 0.00225097 0.00229125 0.00232986 0.00236662 0.00240132 0.00243379 0.00246385 0.00249133 0.0025161 0.00253799 0.0025569 0.00257273 0.00258537 0.00259476 0.00260086 0.00260363 0.00260307 0.0025992 0.00259204 0.00258165 0.00256811 0.00255152 0.00253198 0.00250962 0.00248459 0.00245704 0.00242715 0.0023951 0.00236108 0.00232528 0.00228791 0.00224917 0.00220927 0.00216842 0.00212683 0.00208471 0.00204225 0.00199965 0.0019571 0.0019148 0.00187292 0.00183164 0.00179111 0.00175149 0.00171293 0.00167557 0.00163955 0.00160497 0.00157196 0.00154062 0.00151104 0.00148332 0.00145753 0.00143375 0.00141205 0.00139248 0.00137509 0.00135993 0.00134704 0.00133645 0.00132819 0.00132227 0.00131871 0.00131753 
0.00107837 0.00107949 0.00108284 0.00108842 0.00109622 0.00110623 0.00111843 0.0011328 0.00114933 0.00116798 0.00118872 0.00121152 0.00123633 0.00126311 0.0012918 0.00132236 0.0013547 0.00138878 0.00142449 0.00146177 0.00150052 0.00154064 0.00158202 0.00162454 0.00166808 0.00171251 0.00175768 0.00180344 0.00184965 0.00189612 0.00194269 0.00198918 0.0020354 0.00208116 0.00212625 0.00217049 0.00221367 0.00225558 0.00229602 0.0023348 0.00237171 0.00240656 0.00243917 0.00246936 0.00249697 0.00252184 0.00254383 0.00256283 0.00257872 0.00259142 0.00260085 0.00260697 0.00260975 0.00260919 0.00260529 0.00259809 0.00258764 0.00257404 0.00255736 0.00253772 0.00251525 0.00249009 0.00246242 0.00243239 0.00240019 0.00236601 0.00233005 0.00229252 0.00225361 0.00221355 0.00217253 0.00213077 0.00208847 0.00204584 0.00200308 0.00196038 0.00191792 0.00187589 0.00183445 0.00179378 0.00175403 0.00171535 0.00167786 0.00164172 0.00160704 0.00157392 0.00154248 0.00151282 0.00148501 0.00145915 0.0014353 0.00141354 0.00139391 0.00137647 0.00136127 0.00134835 0.00133773 0.00132944 0.00132351 0.00131995 0.00131876 
0.00108108 0.00108221 0.00108558 0.0010912 0.00109905 0.00110913 0.00112142 0.00113589 0.00115253 0.00117132 0.00119221 0.00121517 0.00124017 0.00126715 0.00129607 0.00132686 0.00135946 0.00139381 0.00142982 0.00146741 0.00150649 0.00154696 0.00158871 0.00163162 0.00167557 0.00172042 0.00176603 0.00181225 0.00185893 0.00190588 0.00195295 0.00199994 0.00204667 0.00209294 0.00213856 0.00218332 0.00222701 0.00226943 0.00231037 0.00234964 0.00238701 0.00242231 0.00245535 0.00248593 0.00251391 0.00253911 0.0025614 0.00258064 0.00259674 0.00260961 0.00261916 0.00262535 0.00262815 0.00262756 0.00262359 0.00261627 0.00260566 0.00259184 0.0025749 0.00255497 0.00253217 0.00250665 0.00247858 0.00244813 0.00241548 0.00238084 0.0023444 0.00230637 0.00226696 0.00222639 0.00218486 0.00214259 0.00209978 0.00205665 0.0020134 0.00197021 0.00192728 0.00188479 0.00184292 0.00180182 0.00176166 0.00172259 0.00168474 0.00164825 0.00161323 0.00157981 0.00154808 0.00151815 0.0014901 0.00146401 0.00143996 0.001418 0.00139821 0.00138063 0.0013653 0.00135227 0.00134157 0.00133321 0.00132723 0.00132364 0.00132244 
0.0010856 0.00108673 0.00109015 0.00109583 0.00110377 0.00111396 0.00112639 0.00114103 0.00115787 0.00117688 0.00119802 0.00122126 0.00124656 0.00127388 0.00130317 0.00133436 0.00136739 0.00140219 0.0014387 0.00147681 0.00151645 0.0015575 0.00159987 0.00164343 0.00168805 0.00173361 0.00177996 0.00182695 0.00187441 0.00192218 0.00197007 0.00201791 0.00206549 0.00211263 0.00215912 0.00220475 0.00224931 0.00229258 0.00233436 0.00237444 0.00241261 0.00244866 0.00248241 0.00251366 0.00254224 0.002568 0.00259078 0.00261045 0.00262691 0.00264005 0.0026498 0.00265611 0.00265895 0.00265831 0.00265422 0.00264669 0.0026358 0.00262162 0.00260426 0.00258383 0.00256048 0.00253435 0.00250561 0.00247445 0.00244106 0.00240563 0.00236838 0.00232952 0.00228927 0.00224784 0.00220545 0.00216232 0.00211867 0.0020747 0.00203061 0.00198662 0.0019429 0.00189965 0.00185704 0.00181523 0.00177439 0.00173467 0.0016962 0.00165912 0.00162356 0.00158962 0.00155741 0.00152703 0.00149857 0.0014721 0.0014477 0.00142544 0.00140537 0.00138755 0.00137201 0.0013588 0.00134795 0.00133949 0.00133343 0.00132978 0.00132857 
0.0010919 0.00109306 0.00109652 0.00110229 0.00111036 0.00112071 0.00113334 0.00114822 0.00116533 0.00118465 0.00120614 0.00122977 0.00125551 0.0012833 0.0013131 0.00134484 0.00137848 0.00141393 0.00145112 0.00148997 0.00153039 0.00157227 0.0016155 0.00165997 0.00170556 0.00175211 0.0017995 0.00184756 0.00189613 0.00194504 0.0019941 0.00204313 0.00209193 0.00214029 0.00218801 0.00223487 0.00228065 0.00232513 0.0023681 0.00240933 0.00244861 0.00248573 0.00252049 0.00255269 0.00258214 0.00260869 0.00263217 0.00265244 0.0026694 0.00268293 0.00269296 0.00269944 0.00270234 0.00270164 0.00269737 0.00268955 0.00267826 0.00266358 0.00264561 0.00262448 0.00260033 0.00257333 0.00254365 0.00251149 0.00247703 0.0024405 0.0024021 0.00236207 0.00232062 0.00227798 0.00223438 0.00219004 0.00214518 0.00210003 0.00205478 0.00200964 0.00196481 0.00192048 0.00187683 0.00183402 0.00179222 0.00175159 0.00171225 0.00167435 0.00163801 0.00160335 0.00157047 0.00153946 0.00151041 0.00148342 0.00145853 0.00143584 0.00141538 0.00139721 0.00138138 0.00136793 0.00135687 0.00134825 0.00134208 0.00133837 0.00133713 
0.00109998 0.00110116 0.00110469 0.00111058 0.00111881 0.00112937 0.00114225 0.00115743 0.00117489 0.00119461 0.00121655 0.00124069 0.00126698 0.00129538 0.00132584 0.00135831 0.00139272 0.00142901 0.00146709 0.00150689 0.00154831 0.00159126 0.00163562 0.00168127 0.00172809 0.00177594 0.00182467 0.00187412 0.00192413 0.00197452 0.00202511 0.00207568 0.00212606 0.00217601 0.00222533 0.00227379 0.00232117 0.00236723 0.00241174 0.00245448 0.00249522 0.00253373 0.00256981 0.00260324 0.00263383 0.00266141 0.0026858 0.00270686 0.00272447 0.00273852 0.00274893 0.00275563 0.0027586 0.00275782 0.00275331 0.00274512 0.0027333 0.00271795 0.00269919 0.00267714 0.00265196 0.00262382 0.00259291 0.00255943 0.00252359 0.00248561 0.00244572 0.00240415 0.00236114 0.00231693 0.00227175 0.00222583 0.00217941 0.00213271 0.00208594 0.00203932 0.00199305 0.00194732 0.00190232 0.00185822 0.00181518 0.00177336 0.0017329 0.00169394 0.0016566 0.001621 0.00158724 0.00155542 0.00152563 0.00149794 0.00147244 0.00144918 0.00142822 0.00140961 0.0013934 0.00137963 0.00136831 0.00135949 0.00135317 0.00134937 0.0013481 
0.00110981 0.00111102 0.00111464 0.00112066 0.00112909 0.0011399 0.0011531 0.00116865 0.00118654 0.00120675 0.00122925 0.001254 0.00128097 0.00131012 0.0013414 0.00137474 0.00141011 0.00144742 0.00148659 0.00152756 0.00157022 0.00161448 0.00166022 0.00170733 0.00175568 0.00180512 0.00185551 0.00190669 0.00195848 0.0020107 0.00206316 0.00211566 0.00216798 0.00221991 0.00227121 0.00232167 0.00237102 0.00241904 0.00246548 0.0025101 0.00255265 0.0025929 0.00263062 0.00266559 0.00269761 0.00272647 0.002752 0.00277406 0.00279248 0.00280718 0.00281805 0.00282503 0.00282808 0.0028272 0.0028224 0.00281373 0.00280126 0.00278508 0.00276532 0.00274213 0.00271566 0.0026861 0.00265365 0.00261852 0.00258095 0.00254117 0.00249942 0.00245594 0.00241099 0.00236482 0.00231768 0.0022698 0.00222144 0.00217283 0.00212418 0.00207573 0.00202767 0.00198022 0.00193355 0.00188784 0.00184327 0.00179999 0.00175815 0.00171788 0.00167931 0.00164255 0.00160772 0.0015749 0.00154419 0.00151566 0.00148939 0.00146544 0.00144387 0.00142472 0.00140805 0.00139388 0.00138224 0.00137317 0.00136667 0.00136277 0.00136147 
0.00112137 0.00112261 0.00112633 0.00113252 0.00114118 0.00115229 0.00116586 0.00118185 0.00120025 0.00122104 0.00124419 0.00126968 0.00129746 0.00132749 0.00135973 0.00139413 0.00143062 0.00146915 0.00150963 0.00155198 0.00159612 0.00164194 0.00168933 0.00173818 0.00178835 0.0018397 0.00189207 0.0019453 0.00199922 0.00205364 0.00210836 0.00216316 0.00221782 0.00227213 0.00232582 0.00237867 0.00243042 0.0024808 0.00252957 0.00257645 0.00262119 0.00266355 0.00270326 0.0027401 0.00277384 0.00280426 0.00283118 0.00285443 0.00287385 0.00288933 0.00290076 0.00290808 0.00291124 0.00291023 0.00290508 0.00289583 0.00288256 0.00286538 0.00284441 0.00281982 0.00279178 0.0027605 0.00272618 0.00268907 0.00264941 0.00260744 0.00256344 0.00251766 0.00247037 0.00242184 0.00237233 0.0023221 0.00227141 0.00222049 0.00216959 0.00211893 0.00206874 0.00201921 0.00197055 0.00192293 0.00187653 0.00183151 0.00178801 0.00174618 0.00170614 0.00166801 0.00163189 0.00159789 0.00156608 0.00153655 0.00150937 0.0014846 0.0014623 0.00144252 0.00142529 0.00141065 0.00139863 0.00138926 0.00138256 0.00137853 0.00137719 
0.00113462 0.0011359 0.00113973 0.00114612 0.00115505 0.00116651 0.0011805 0.001197 0.00121599 0.00123746 0.00126137 0.0012877 0.00131641 0.00134747 0.00138084 0.00141645 0.00145425 0.00149419 0.00153618 0.00158015 0.00162601 0.00167365 0.00172296 0.00177383 0.00182613 0.0018797 0.00193439 0.00199004 0.00204645 0.00210345 0.00216081 0.00221831 0.00227574 0.00233283 0.00238935 0.00244503 0.00249959 0.00255277 0.00260428 0.00265385 0.0027012 0.00274604 0.00278812 0.00282718 0.00286296 0.00289524 0.00292381 0.00294848 0.00296909 0.0029855 0.0029976 0.00300532 0.00300861 0.00300745 0.00300188 0.00299194 0.00297772 0.00295933 0.00293693 0.00291067 0.00288077 0.00284744 0.00281091 0.00277144 0.00272929 0.00268474 0.00263806 0.00258956 0.0025395 0.00248819 0.00243589 0.00238288 0.00232944 0.00227582 0.00222227 0.00216903 0.00211632 0.00206437 0.00201337 0.00196351 0.00191497 0.00186791 0.00182248 0.00177883 0.00173708 0.00169735 0.00165974 0.00162436 0.00159128 0.00156059 0.00153235 0.00150663 0.00148349 0.00146296 0.00144508 0.00142991 0.00141745 0.00140774 0.00140079 0.00139661 0.00139522 
0.00114954 0.00115086 0.00115482 0.00116143 0.00117066 0.00118252 0.00119699 0.00121407 0.00123373 0.00125596 0.00128073 0.00130803 0.00133781 0.00137004 0.00140467 0.00144167 0.00148098 0.00152252 0.00156624 0.00161206 0.00165987 0.0017096 0.00176112 0.00181431 0.00186905 0.00192518 0.00198254 0.00204096 0.00210025 0.00216022 0.00222063 0.00228127 0.00234189 0.00240222 0.00246201 0.00252097 0.00257882 0.00263525 0.00268997 0.00274267 0.00279306 0.00284082 0.00288566 0.00292731 0.0029655 0.00299996 0.00303046 0.00305681 0.00307881 0.00309631 0.0031092 0.00311739 0.00312082 0.00311949 0.00311342 0.00310266 0.00308732 0.00306752 0.00304343 0.00301523 0.00298314 0.0029474 0.00290827 0.00286604 0.00282098 0.00277341 0.00272363 0.00267194 0.00261866 0.0025641 0.00250856 0.00245233 0.0023957 0.00233894 0.00228233 0.0022261 0.0021705 0.00211575 0.00206205 0.00200962 0.00195862 0.00190922 0.00186158 0.00181584 0.00177213 0.00173057 0.00169125 0.00165429 0.00161976 0.00158774 0.0015583 0.00153149 0.00150738 0.001486 0.0014674 0.00145161 0.00143865 0.00142855 0.00142132 0.00141698 0.00141554 
0.00116608 0.00116745 0.00117155 0.0011784 0.00118797 0.00120027 0.00121529 0.00123301 0.00125343 0.00127651 0.00130226 0.00133063 0.0013616 0.00139514 0.00143122 0.00146977 0.00151076 0.00155412 0.00159979 0.00164768 0.00169772 0.0017498 0.00180381 0.00185964 0.00191714 0.00197617 0.00203657 0.00209815 0.00216072 0.00222407 0.00228798 0.00235219 0.00241646 0.00248051 0.00254406 0.00260679 0.00266841 0.0027286 0.00278701 0.00284333 0.00289723 0.00294836 0.00299642 0.00304108 0.00308204 0.00311903 0.00315179 0.00318008 0.0032037 0.00322248 0.00323628 0.00324501 0.00324862 0.00324708 0.00324043 0.00322873 0.00321208 0.00319064 0.00316457 0.0031341 0.00309947 0.00306094 0.0030188 0.00297336 0.00292494 0.00287387 0.0028205 0.00276514 0.00270815 0.00264986 0.00259059 0.00253066 0.00247037 0.00241003 0.0023499 0.00229026 0.00223135 0.00217341 0.00211666 0.00206129 0.0020075 0.00195545 0.0019053 0.0018572 0.00181127 0.00176763 0.0017264 0.00168765 0.00165148 0.00161797 0.00158717 0.00155914 0.00153394 0.00151161 0.00149219 0.00147571 0.00146219 0.00145165 0.00144411 0.00143958 0.00143807 
0.00118419 0.00118561 0.00118988 0.00119699 0.00120695 0.00121974 0.00123535 0.00125379 0.00127503 0.00129907 0.00132589 0.00135546 0.00138776 0.00142276 0.00146042 0.00150071 0.00154358 0.00158896 0.0016368 0.00168702 0.00173954 0.00179425 0.00185106 0.00190983 0.00197044 0.00203273 0.00209654 0.00216168 0.00222795 0.00229513 0.00236298 0.00243126 0.00249967 0.00256794 0.00263576 0.0027028 0.00276873 0.00283319 0.00289584 0.00295631 0.00301423 0.00306924 0.00312098 0.00316911 0.00321328 0.00325319 0.00328854 0.00331908 0.00334457 0.00336482 0.00337968 0.00338905 0.00339285 0.00339107 0.00338375 0.00337094 0.00335279 0.00332944 0.0033011 0.00326801 0.00323044 0.00318869 0.00314308 0.00309395 0.00304167 0.00298659 0.00292909 0.00286954 0.00280831 0.00274575 0.00268223 0.00261809 0.00255365 0.00248923 0.00242513 0.00236163 0.00229898 0.00223744 0.00217723 0.00211857 0.00206163 0.0020066 0.00195364 0.00190289 0.00185448 0.00180853 0.00176514 0.0017244 0.00168641 0.00165122 0.00161891 0.00158953 0.00156312 0.00153973 0.0015194 0.00150215 0.001488 0.00147698 0.00146909 0.00146436 0.00146278 
0.00120382 0.0012053 0.00120975 0.00121716 0.00122753 0.00124085 0.00125713 0.00127635 0.0012985 0.00132359 0.00135158 0.00138247 0.00141623 0.00145283 0.00149225 0.00153446 0.00157939 0.00162701 0.00167725 0.00173004 0.0017853 0.00184294 0.00190285 0.0019649 0.00202897 0.0020949 0.00216252 0.00223164 0.00230205 0.00237353 0.00244582 0.00251865 0.00259174 0.00266477 0.00273742 0.00280933 0.00288014 0.00294947 0.00301693 0.00308212 0.00314464 0.00320408 0.00326004 0.00331213 0.00335998 0.00340324 0.00344158 0.0034747 0.00350234 0.00352428 0.00354036 0.00355045 0.00355448 0.00355242 0.00354432 0.00353025 0.00351035 0.00348481 0.00345385 0.00341775 0.00337681 0.00333136 0.00328178 0.00322844 0.00317174 0.00311209 0.00304989 0.00298556 0.0029195 0.00285212 0.00278378 0.00271488 0.00264575 0.00257674 0.00250816 0.00244032 0.00237348 0.00230791 0.00224383 0.00218148 0.00212104 0.00206269 0.00200659 0.0019529 0.00190173 0.00185321 0.00180744 0.0017645 0.00172449 0.00168746 0.00165348 0.00162259 0.00159486 0.0015703 0.00154896 0.00153086 0.00151603 0.00150447 0.00149621 0.00149124 0.00148959 
0.00122492 0.00122646 0.0012311 0.00123883 0.00124965 0.00126356 0.00128055 0.00130063 0.00132378 0.00135 0.00137928 0.0014116 0.00144695 0.00148531 0.00152666 0.00157095 0.00161815 0.00166822 0.0017211 0.00177671 0.001835 0.00189586 0.00195919 0.00202487 0.00209276 0.00216272 0.00223457 0.00230811 0.00238313 0.0024594 0.00253664 0.00261458 0.00269291 0.00277128 0.00284936 0.00292676 0.00300308 0.00307791 0.00315082 0.00322137 0.0032891 0.00335358 0.00341434 0.00347096 0.00352302 0.0035701 0.00361185 0.00364793 0.00367803 0.00370192 0.0037194 0.00373032 0.0037346 0.00373223 0.00372322 0.0037077 0.0036858 0.00365774 0.00362378 0.00358423 0.00353943 0.00348977 0.00343565 0.0033775 0.00331578 0.00325092 0.0031834 0.00311366 0.00304215 0.00296931 0.00289555 0.00282129 0.00274689 0.00267273 0.00259915 0.00252646 0.00245494 0.00238488 0.00231651 0.00225006 0.00218573 0.00212371 0.00206415 0.00200721 0.001953 0.00190165 0.00185326 0.0018079 0.00176567 0.00172661 0.0016908 0.00165828 0.00162908 0.00160325 0.00158081 0.00156179 0.0015462 0.00153406 0.00152538 0.00152017 0.00151843 
0.00124742 0.00124903 0.00125388 0.00126196 0.00127326 0.0012878 0.00130557 0.00132657 0.00135079 0.00137825 0.00140892 0.0014428 0.00147988 0.00152014 0.00156357 0.00161014 0.00165981 0.00171255 0.0017683 0.001827 0.00188859 0.00195298 0.00202006 0.00208972 0.00216183 0.00223623 0.00231274 0.00239118 0.0024713 0.00255288 0.00263563 0.00271925 0.00280342 0.00288777 0.00297193 0.00305549 0.00313801 0.00321903 0.00329809 0.00337469 0.00344833 0.00351851 0.00358474 0.00364651 0.00370335 0.0037548 0.00380045 0.0038399 0.00387283 0.00389894 0.00391801 0.00392988 0.00393446 0.00393171 0.00392168 0.00390448 0.00388029 0.00384935 0.00381196 0.00376846 0.00371926 0.00366479 0.00360551 0.0035419 0.00347447 0.00340373 0.00333018 0.00325434 0.00317669 0.00309771 0.00301787 0.0029376 0.00285732 0.00277742 0.00269826 0.00262017 0.00254347 0.00246843 0.00239531 0.00232434 0.00225573 0.00218966 0.00212629 0.00206578 0.00200824 0.00195379 0.00190253 0.00185453 0.00180988 0.00176862 0.00173081 0.0016965 0.00166572 0.0016385 0.00161487 0.00159484 0.00157843 0.00156566 0.00155653 0.00155105 0.00154923 
0.00127125 0.00127294 0.00127801 0.00128646 0.00129829 0.00131351 0.00133211 0.0013541 0.00137948 0.00140826 0.00144042 0.00147598 0.00151492 0.00155724 0.00160293 0.00165195 0.0017043 0.00175993 0.0018188 0.00188086 0.00194605 0.00201428 0.00208546 0.00215947 0.00223619 0.00231545 0.00239709 0.00248091 0.00256666 0.00265411 0.00274295 0.00283288 0.00292354 0.00301455 0.0031055 0.00319594 0.0032854 0.00337338 0.00345935 0.00354277 0.00362309 0.00369974 0.00377215 0.00383977 0.00390204 0.00395847 0.00400856 0.00405187 0.00408801 0.00411667 0.00413757 0.00415053 0.00415543 0.00415226 0.00414105 0.00412193 0.00409512 0.00406088 0.00401957 0.00397158 0.00391736 0.00385741 0.00379227 0.00372247 0.00364859 0.00357119 0.00349085 0.00340813 0.00332359 0.00323773 0.00315108 0.00306411 0.00297728 0.00289099 0.00280564 0.00272158 0.00263914 0.00255861 0.00248026 0.00240432 0.00233101 0.00226051 0.00219298 0.00212857 0.0020674 0.00200958 0.00195519 0.00190433 0.00185704 0.00181339 0.00177343 0.00173718 0.00170469 0.00167597 0.00165105 0.00162994 0.00161265 0.00159919 0.00158958 0.00158381 0.00158189 
0.00129635 0.00129812 0.00130342 0.00131227 0.00132466 0.0013406 0.00136009 0.00138314 0.00140976 0.00143995 0.00147372 0.00151108 0.00155202 0.00159655 0.00164465 0.00169632 0.00175155 0.0018103 0.00187254 0.00193823 0.00200731 0.00207971 0.00215534 0.00223408 0.00231583 0.00240041 0.00248766 0.00257737 0.00266932 0.00276322 0.00285879 0.00295568 0.00305354 0.00315193 0.00325044 0.00334856 0.00344578 0.00354155 0.00363529 0.00372639 0.00381423 0.00389818 0.00397759 0.00405184 0.0041203 0.00418238 0.00423753 0.00428524 0.00432506 0.00435661 0.0043796 0.0043938 0.00439908 0.00439541 0.00438285 0.00436154 0.00433173 0.00429373 0.00424793 0.00419482 0.00413489 0.00406873 0.00399693 0.00392012 0.00383894 0.00375404 0.00366606 0.00357562 0.00348334 0.0033898 0.00329556 0.00320113 0.00310701 0.00301365 0.00292145 0.00283081 0.00274205 0.00265549 0.0025714 0.00249002 0.00241157 0.00233624 0.00226417 0.00219553 0.00213041 0.00206893 0.00201117 0.0019572 0.00190708 0.00186085 0.00181856 0.00178023 0.00174589 0.00171556 0.00168926 0.00166698 0.00164875 0.00163456 0.00162443 0.00161834 0.00161632 
0.00132263 0.00132448 0.00133004 0.0013393 0.00135229 0.00136899 0.00138943 0.00141361 0.00144154 0.00147325 0.00150873 0.001548 0.00159108 0.00163796 0.00168866 0.00174316 0.00180147 0.00186357 0.00192944 0.00199904 0.00207232 0.00214922 0.00222966 0.00231354 0.00240074 0.00249111 0.00258447 0.00268063 0.00277934 0.00288033 0.0029833 0.00308787 0.00319367 0.00330025 0.00340714 0.00351381 0.00361968 0.00372417 0.00382661 0.00392634 0.00402266 0.00411484 0.00420218 0.00428394 0.00435941 0.00442792 0.00448883 0.00454156 0.00458557 0.00462044 0.00464581 0.00466143 0.00466714 0.00466291 0.00464879 0.00462498 0.00459173 0.00454942 0.00449852 0.00443956 0.00437315 0.00429992 0.00422058 0.00413584 0.00404643 0.00395307 0.0038565 0.00375741 0.00365649 0.00355437 0.00345167 0.00334896 0.00324677 0.00314559 0.00304585 0.00294795 0.00285226 0.0027591 0.00266873 0.00258142 0.00249738 0.00241679 0.00233981 0.00226658 0.0021972 0.00213177 0.00207037 0.00201306 0.00195988 0.00191089 0.0018661 0.00182554 0.00178923 0.00175717 0.00172939 0.00170587 0.00168662 0.00167166 0.00166097 0.00165455 0.00165241 