<?xml version="1.0"?>
<VTKFile type="StructuredGrid" version="0.1">
    <StructuredGrid WholeExtent="0 100 0 100 0 0">
        <Piece Extent="0 100 0 100 0 0">
            <Points>
                <DataArray type="Float64" NumberOfComponents="3" format="ascii">
-15 -15 0
-15 -14.7 0
-15 -14.4 0
-15 -14.1 0
-15 -13.8 0
-15 -13.5 0
-15 -13.2 0
-15 -12.9 0
-15 -12.6 0
-15 -12.3 0
-15 -12 0
-15 -11.7 0
-15 -11.4 0
-15 -11.1 0
-15 -10.8 0
-15 -10.5 0
-15 -10.2 0
-15 -9.9 0
-15 -9.6 0
-15 -9.3 0
-15 -9 0
-15 -8.7 0
-15 -8.4 0
-15 -8.1 0
-15 -7.8 0
-15 -7.5 0
-15 -7.2 0
-15 -6.9 0
-15 -6.6 0
-15 -6.3 0
-15 -6 0
-15 -5.7 0
-15 -5.4 0
-15 -5.1 0
-15 -4.8 0
-15 -4.5 0
-15 -4.2 0
-15 -3.9 0
-15 -3.6 0
-15 -3.3 0
-15 -3 0
-15 -2.7 0
-15 -2.4 0
-15 -2.1 0
-15 -1.8 0
-15 -1.5 0
-15 -1.2 0
-15 -0.9 0
-15 -0.6 0
-15 -0.3 0
-15 0 0
-15 0.3 0
-15 0.6 0
-15 0.9 0
-15 1.2 0
-15 1.5 0
-15 1.8 0
-15 2.1 0
-15 2.4 0
-15 2.7 0
-15 3 0
-15 3.3 0
-15 3.6 0
-15 3.9 0
-15 4.2 0
-15 4.5 0
-15 4.8 0
-15 5.1 0
-15 5.4 0
-15 5.7 0
-15 6 0
-15 6.3 0
-15 6.6 0
-15 6.9 0
-15 7.2 0
-15 7.5 0
-15 7.8 0
-15 8.1 0
-15 8.4 0
-15 8.7 0
-15 9 0
-15 9.3 0
-15 9.6 0
-15 9.9 0
-15 10.2 0
-15 10.5 0
-15 10.8 0
-15 11.1 0
-15 11.4 0
-15 11.7 0
-15 12 0
-15 12.3 0
-15 12.6 0
-15 12.9 0
-15 13.2 0
-15 13.5 0
-15 13.8 0
-15 14.1 0
-15 14.4 0
-15 14.7 0
-15 15 0
-14.7 -15 0
-14.7 -14.7 0
-14.7 -14.4 0
-14.7 -14.1 0
-14.7 -13.8 0
-14.7 -13.5 0
-14.7 -13.2 0
-14.7 -12.9 0
-14.7 -12.6 0
-14.7 -12.3 0
-14.7 -12 0
-14.7 -11.7 0
-14.7 -11.4 0
-14.7 -11.1 0
-14.7 -10.8 0
-14.7 -10.5 0
-14.7 -10.2 0
-14.7 -9.9 0
-14.7 -9.6 0
-14.7 -9.3 0
-14.7 -9 0
-14.7 -8.7 0
-14.7 -8.4 0
-14.7 -8.1 0
-14.7 -7.8 0
-14.7 -7.5 0
-14.7 -7.2 0
-14.7 -6.9 0
-14.7 -6.6 0
-14.7 -6.3 0
-14.7 -6 0
-14.7 -5.7 0
-14.7 -5.4 0
-14.7 -5.1 0
-14.7 -4.8 0
-14.7 -4.5 0
-14.7 -4.2 0
-14.7 -3.9 0
-14.7 -3.6 0
-14.7 -3.3 0
-14.7 -3 0
-14.7 -2.7 0
-14.7 -2.4 0
-14.7 -2.1 0
-14.7 -1.8 0
-14.7 -1.5 0
-14.7 -1.2 0
-14.7 -0.9 0
-14.7 -0.6 0
-14.7 -0.3 0
-14.7 0 0
-14.7 0.3 0
-14.7 0.6 0
-14.7 0.9 0
-14.7 1.2 0
-14.7 1.5 0
-14.7 1.8 0
-14.7 2.1 0
-14.7 2.4 0
-14.7 2.7 0
-14.7 3 0
-14.7 3.3 0
-14.7 3.6 0
-14.7 3.9 0
-14.7 4.2 0
-14.7 4.5 0
-14.7 4.8 0
-14.7 5.1 0
-14.7 5.4 0
-14.7 5.7 0
-14.7 6 0
-14.7 6.3 0
-14.7 6.6 0
-14.7 6.9 0
-14.7 7.2 0
-14.7 7.5 0
-14.7 7.8 0
-14.7 8.1 0
-14.7 8.4 0
-14.7 8.7 0
-14.7 9 0
-14.7 9.3 0
-14.7 9.6 0
-14.7 9.9 0
-14.7 10.2 0
-14.7 10.5 0
-14.7 10.8 0
-14.7 11.1 0
-14.7 11.4 0
-14.7 11.7 0
-14.7 12 0
-14.7 12.3 0
-14.7 12.6 0
-14.7 12.9 0
-14.7 13.2 0
-14.7 13.5 0
-14.7 13.8 0
-14.7 14.1 0
-14.7 14.4 0
-14.7 14.7 0
-14.7 15 0
-14.4 -15 0
-14.4 -14.7 0
-14.4 -14.4 0
-14.4 -14.1 0
-14.4 -13.8 0
-14.4 -13.5 0
-14.4 -13.2 0
-14.4 -12.9 0
-14.4 -12.6 0
-14.4 -12.3 0
-14.4 -12 0
-14.4 -11.7 0
-14.4 -11.4 0
-14.4 -11.1 0
-14.4 -10.8 0
-14.4 -10.5 0
-14.4 -10.2 0
-14.4 -9.9 0
-14.4 -9.6 0
-14.4 -9.3 0
-14.4 -9 0
-14.4 -8.7 0
-14.4 -8.4 0
-14.4 -8.1 0
-14.4 -7.8 0
-14.4 -7.5 0
-14.4 -7.2 0
-14.4 -6.9 0
-14.4 -6.6 0
-14.4 -6.3 0
-14.4 -6 0
-14.4 -5.7 0
-14.4 -5.4 0
-14.4 -5.1 0
-14.4 -4.8 0
-14.4 -4.5 0
-14.4 -4.2 0
-14.4 -3.9 0
-14.4 -3.6 0
-14.4 -3.3 0
-14.4 -3 0
-14.4 -2.7 0
-14.4 -2.4 0
-14.4 -2.1 0
-14.4 -1.8 0
-14.4 -1.5 0
-14.4 -1.2 0
-14.4 -0.9 0
-14.4 -0.6 0
-14.4 -0.3 0
-14.4 0 0
-14.4 0.3 0
-14.4 0.6 0
-14.4 0.9 0
-14.4 1.2 0
-14.4 1.5 0
-14.4 1.8 0
-14.4 2.1 0
-14.4 2.4 0
-14.4 2.7 0
-14.4 3 0
-14.4 3.3 0
-14.4 3.6 0
-14.4 3.9 0
-14.4 4.2 0
-14.4 4.5 0
-14.4 4.8 0
-14.4 5.1 0
-14.4 5.4 0
-14.4 5.7 0
-14.4 6 0
-14.4 6.3 0
-14.4 6.6 0
-14.4 6.9 0
-14.4 7.2 0
-14.4 7.5 0
-14.4 7.8 0
-14.4 8.1 0
-14.4 8.4 0
-14.4 8.7 0
-14.4 9 0
-14.4 9.3 0
-14.4 9.6 0
-14.4 9.9 0
-14.4 10.2 0
-14.4 10.5 0
-14.4 10.8 0
-14.4 11.1 0
-14.4 11.4 0
-14.4 11.7 0
-14.4 12 0
-14.4 12.3 0
-14.4 12.6 0
-14.4 12.9 0
-14.4 13.2 0
-14.4 13.5 0
-14.4 13.8 0
-14.4 14.1 0
-14.4 14.4 0
-14.4 14.7 0
-14.4 15 0
-14.1 -15 0
-14.1 -14.7 0
-14.1 -14.4 0
-14.1 -14.1 0
-14.1 -13.8 0
-14.1 -13.5 0
-14.1 -13.2 0
-14.1 -12.9 0
-14.1 -12.6 0
-14.1 -12.3 0
-14.1 -12 0
-14.1 -11.7 0
-14.1 -11.4 0
-14.1 -11.1 0
-14.1 -10.8 0
-14.1 -10.5 0
-14.1 -10.2 0
-14.1 -9.9 0
-14.1 -9.6 0
-14.1 -9.3 0
-14.1 -9 0
-14.1 -8.7 0
-14.1 -8.4 0
-14.1 -8.1 0
-14.1 -7.8 0
-14.1 -7.5 0
-14.1 -7.2 0
-14.1 -6.9 0
-14.1 -6.6 0
-14.1 -6.3 0
-14.1 -6 0
-14.1 -5.7 0
-14.1 -5.4 0
-14.1 -5.1 0
-14.1 -4.8 0
-14.1 -4.5 0
-14.1 -4.2 0
-14.1 -3.9 0
-14.1 -3.6 0
-14.1 -3.3 0
-14.1 -3 0
-14.1 -2.7 0
-14.1 -2.4 0
-14.1 -2.1 0
-14.1 -1.8 0
-14.1 -1.5 0
-14.1 -1.2 0
-14.1 -0.9 0
-14.1 -0.6 0
-14.1 -0.3 0
-14.1 0 0
-14.1 0.3 0
-14.1 0.6 0
-14.1 0.9 0
-14.1 1.2 0
-14.1 1.5 0
-14.1 1.8 0
-14.1 2.1 0
-14.1 2.4 0
-14.1 2.7 0
-14.1 3 0
-14.1 3.3 0
-14.1 3.6 0
-14.1 3.9 0
-14.1 4.2 0
-14.1 4.5 0
-14.1 4.8 0
-14.1 5.1 0
-14.1 5.4 0
-14.1 5.7 0
-14.1 6 0
-14.1 6.3 0
-14.1 6.6 0
-14.1 6.9 0
-14.1 7.2 0
-14.1 7.5 0
-14.1 7.8 0
-14.1 8.1 0
-14.1 8.4 0
-14.1 8.7 0
-14.1 9 0
-14.1 9.3 0
-14.1 9.6 0
-14.1 9.9 0
-14.1 10.2 0
-14.1 10.5 0
-14.1 10.8 0
-14.1 11.1 0
-14.1 11.4 0
-14.1 11.7 0
-14.1 12 0
-14.1 12.3 0
-14.1 12.6 0
-14.1 12.9 0
-14.1 13.2 0
-14.1 13.5 0
-14.1 13.8 0
-14.1 14.1 0
-14.1 14.4 0
-14.1 14.7 0
-14.1 15 0
-13.8 -15 0
-13.8 -14.7 0
-13.8 -14.4 0
-13.8 -14.1 0
-13.8 -13.8 0
-13.8 -13.5 0
-13.8 -13.2 0
-13.8 -12.9 0
-13.8 -12.6 0
-13.8 -12.3 0
-13.8 -12 0
-13.8 -11.7 0
-13.8 -11.4 0
-13.8 -11.1 0
-13.8 -10.8 0
-13.8 -10.5 0
-13.8 -10.2 0
-13.8 -9.9 0
-13.8 -9.6 0
-13.8 -9.3 0
-13.8 -9 0
-13.8 -8.7 0
-13.8 -8.4 0
-13.8 -8.1 0
-13.8 -7.8 0
-13.8 -7.5 0
-13.8 -7.2 0
-13.8 -6.9 0
-13.8 -6.6 0
-13.8 -6.3 0
-13.8 -6 0
-13.8 -5.7 0
-13.8 -5.4 0
-13.8 -5.1 0
-13.8 -4.8 0
-13.8 -4.5 0
-13.8 -4.2 0
-13.8 -3.9 0
-13.8 -3.6 0
-13.8 -3.3 0
-13.8 -3 0
-13.8 -2.7 0
-13.8 -2.4 0
-13.8 -2.1 0
-13.8 -1.8 0
-13.8 -1.5 0
-13.8 -1.2 0
-13.8 -0.9 0
-13.8 -0.6 0
-13.8 -0.3 0
-13.8 0 0
-13.8 0.3 0
-13.8 0.6 0
-13.8 0.9 0
-13.8 1.2 0
-13.8 1.5 0
-13.8 1.8 0
-13.8 2.1 0
-13.8 2.4 0
-13.8 2.7 0
-13.8 3 0
-13.8 3.3 0
-13.8 3.6 0
-13.8 3.9 0
-13.8 4.2 0
-13.8 4.5 0
-13.8 4.8 0
-13.8 5.1 0
-13.8 5.4 0
-13.8 5.7 0
-13.8 6 0
-13.8 6.3 0
-13.8 6.6 0
-13.8 6.9 0
-13.8 7.2 0
-13.8 7.5 0
-13.8 7.8 0
-13.8 8.1 0
-13.8 8.4 0
-13.8 8.7 0
-13.8 9 0
-13.8 9.3 0
-13.8 9.6 0
-13.8 9.9 0
-13.8 10.2 0
-13.8 10.5 0
-13.8 10.8 0
-13.8 11.1 0
-13.8 11.4 0
-13.8 11.7 0
-13.8 12 0
-13.8 12.3 0
-13.8 12.6 0
-13.8 12.9 0
-13.8 13.2 0
-13.8 13.5 0
-13.8 13.8 0
-13.8 14.1 0
-13.8 14.4 0
-13.8 14.7 0
-13.8 15 0
-13.5 -15 0
-13.5 -14.7 0
-13.5 -14.4 0
-13.5 -14.1 0
-13.5 -13.8 0
-13.5 -13.5 0
-13.5 -13.2 0
-13.5 -12.9 0
-13.5 -12.6 0
-13.5 -12.3 0
-13.5 -12 0
-13.5 -11.7 0
-13.5 -11.4 0
-13.5 -11.1 0
-13.5 -10.8 0
-13.5 -10.5 0
-13.5 -10.2 0
-13.5 -9.9 0
-13.5 -9.6 0
-13.5 -9.3 0
-13.5 -9 0
-13.5 -8.7 0
-13.5 -8.4 0
-13.5 -8.1 0
-13.5 -7.8 0
-13.5 -7.5 0
-13.5 -7.2 0
-13.5 -6.9 0
-13.5 -6.6 0
-13.5 -6.3 0
-13.5 -6 0
-13.5 -5.7 0
-13.5 -5.4 0
-13.5 -5.1 0
-13.5 -4.8 0
-13.5 -4.5 0
-13.5 -4.2 0
-13.5 -3.9 0
-13.5 -3.6 0
-13.5 -3.3 0
-13.5 -3 0
-13.5 -2.7 0
-13.5 -2.4 0
-13.5 -2.1 0
-13.5 -1.8 0
-13.5 -1.5 0
-13.5 -1.2 0
-13.5 -0.9 0
-13.5 -0.6 0
-13.5 -0.3 0
-13.5 0 0
-13.5 0.3 0
-13.5 0.6 0
-13.5 0.9 0
-13.5 1.2 0
-13.5 1.5 0
-13.5 1.8 0
-13.5 2.1 0
-13.5 2.4 0
-13.5 2.7 0
-13.5 3 0
-13.5 3.3 0
-13.5 3.6 0
-13.5 3.9 0
-13.5 4.2 0
-13.5 4.5 0
-13.5 4.8 0
-13.5 5.1 0
-13.5 5.4 0
-13.5 5.7 0
-13.5 6 0
-13.5 6.3 0
-13.5 6.6 0
-13.5 6.9 0
-13.5 7.2 0
-13.5 7.5 0
-13.5 7.8 0
-13.5 8.1 0
-13.5 8.4 0
-13.5 8.7 0
-13.5 9 0
-13.5 9.3 0
-13.5 9.6 0
-13.5 9.9 0
-13.5 10.2 0
-13.5 10.5 0
-13.5 10.8 0
-13.5 11.1 0
-13.5 11.4 0
-13.5 11.7 0
-13.5 12 0
-13.5 12.3 0
-13.5 12.6 0
-13.5 12.9 0
-13.5 13.2 0
-13.5 13.5 0
-13.5 13.8 0
-13.5 14.1 0
-13.5 14.4 0
-13.5 14.7 0
-13.5 15 0
-13.2 -15 0
-13.2 -14.7 0
-13.2 -14.4 0
-13.2 -14.1 0
-13.2 -13.8 0
-13.2 -13.5 0
-13.2 -13.2 0
-13.2 -12.9 0
-13.2 -12.6 0
-13.2 -12.3 0
-13.2 -12 0
-13.2 -11.7 0
-13.2 -11.4 0
-13.2 -11.1 0
-13.2 -10.8 0
-13.2 -10.5 0
-13.2 -10.2 0
-13.2 -9.9 0
-13.2 -9.6 0
-13.2 -9.3 0
-13.2 -9 0
-13.2 -8.7 0
-13.2 -8.4 0
-13.2 -8.1 0
-13.2 -7.8 0
-13.2 -7.5 0
-13.2 -7.2 0
-13.2 -6.9 0
-13.2 -6.6 0
-13.2 -6.3 0
-13.2 -6 0
-13.2 -5.7 0
-13.2 -5.4 0
-13.2 -5.1 0
-13.2 -4.8 0
-13.2 -4.5 0
-13.2 -4.2 0
-13.2 -3.9 0
-13.2 -3.6 0
-13.2 -3.3 0
-13.2 -3 0
-13.2 -2.7 0
-13.2 -2.4 0
-13.2 -2.1 0
-13.2 -1.8 0
-13.2 -1.5 0
-13.2 -1.2 0
-13.2 -0.9 0
-13.2 -0.6 0
-13.2 -0.3 0
-13.2 0 0
-13.2 0.3 0
-13.2 0.6 0
-13.2 0.9 0
-13.2 1.2 0
-13.2 1.5 0
-13.2 1.8 0
-13.2 2.1 0
-13.2 2.4 0
-13.2 2.7 0
-13.2 3 0
-13.2 3.3 0
-13.2 3.6 0
-13.2 3.9 0
-13.2 4.2 0
-13.2 4.5 0
-13.2 4.8 0
-13.2 5.1 0
-13.2 5.4 0
-13.2 5.7 0
-13.2 6 0
-13.2 6.3 0
-13.2 6.6 0
-13.2 6.9 0
-13.2 7.2 0
-13.2 7.5 0
-13.2 7.8 0
-13.2 8.1 0
-13.2 8.4 0
-13.2 8.7 0
-13.2 9 0
-13.2 9.3 0
-13.2 9.6 0
-13.2 9.9 0
-13.2 10.2 0
-13.2 10.5 0
-13.2 10.8 0
-13.2 11.1 0
-13.2 11.4 0
-13.2 11.7 0
-13.2 12 0
-13.2 12.3 0
-13.2 12.6 0
-13.2 12.9 0
-13.2 13.2 0
-13.2 13.5 0
-13.2 13.8 0
-13.2 14.1 0
-13.2 14.4 0
-13.2 14.7 0
-13.2 15 0
-12.9 -15 0
-12.9 -14.7 0
-12.9 -14.4 0
-12.9 -14.1 0
-12.9 -13.8 0
-12.9 -13.5 0
-12.9 -13.2 0
-12.9 -12.9 0
-12.9 -12.6 0
-12.9 -12.3 0
-12.9 -12 0
-12.9 -11.7 0
-12.9 -11.4 0
-12.9 -11.1 0
-12.9 -10.8 0
-12.9 -10.5 0
-12.9 -10.2 0
-12.9 -9.9 0
-12.9 -9.6 0
-12.9 -9.3 0
-12.9 -9 0
-12.9 -8.7 0
-12.9 -8.4 0
-12.9 -8.1 0
-12.9 -7.8 0
-12.9 -7.5 0
-12.9 -7.2 0
-12.9 -6.9 0
-12.9 -6.6 0
-12.9 -6.3 0
-12.9 -6 0
-12.9 -5.7 0
-12.9 -5.4 0
-12.9 -5.1 0
-12.9 -4.8 0
-12.9 -4.5 0
-12.9 -4.2 0
-12.9 -3.9 0
-12.9 -3.6 0
-12.9 -3.3 0
-12.9 -3 0
-12.9 -2.7 0
-12.9 -2.4 0
-12.9 -2.1 0
-12.9 -1.8 0
-12.9 -1.5 0
-12.9 -1.2 0
-12.9 -0.9 0
-12.9 -0.6 0
-12.9 -0.3 0
-12.9 0 0
-12.9 0.3 0
-12.9 0.6 0
-12.9 0.9 0
-12.9 1.2 0
-12.9 1.5 0
-12.9 1.8 0
-12.9 2.1 0
-12.9 2.4 0
-12.9 2.7 0
-12.9 3 0
-12.9 3.3 0
-12.9 3.6 0
-12.9 3.9 0
-12.9 4.2 0
-12.9 4.5 0
-12.9 4.8 0
-12.9 5.1 0
-12.9 5.4 0
-12.9 5.7 0
-12.9 6 0
-12.9 6.3 0
-12.9 6.6 0
-12.9 6.9 0
-12.9 7.2 0
-12.9 7.5 0
-12.9 7.8 0
-12.9 8.1 0
-12.9 8.4 0
-12.9 8.7 0
-12.9 9 0
[...]
            <PointData>
                <DataArray type="Float64" Name="c1" format="ascii">
0.000351963 0.000352503 0.000354121 0.000356815 0.00036058 0.00036541 0.000371297 0.00037823 0.000386197 0.000395185 0.000405174 0.000416148 0.000428084 0.000440957 0.000454741 0.000469405 0.000484916 0.000501238 0.000518329 0.000536148 0.000554646 0.000573771 0.000593471 0.000613684 0.000634348 0.000655396 0.000676757 0.000698356 0.000720115 0.000741949 0.000763775 0.000785502 0.000807039 0.000828292 0.000849165 0.00086956 0.000889379 0.000908524 0.000926896 0.0009444 0.000960942 0.000976428 0.000990772 0.00100389 0.00101571 0.00102615 0.00103515 0.00104266 0.00104862 0.001053 0.00105576 0.00105689 0.00105638 0.00105423 0.00105044 0.00104503 0.00103805 0.00102953 0.00101951 0.00100807 0.000995257 0.000981156 0.000965845 0.000949413 0.000931951 0.000913555 0.000894326 0.000874367 0.00085378 0.000832671 0.000811145 0.000789305 0.000767256 0.000745098 0.000722929 0.000700845 0.000678938 0.000657298 0.000636008 0.00061515 0.000594799 0.000575027 0.000555902 0.000537486 0.000519838 0.000503013 0.000487058 0.000472022 0.000457944 0.000444863 0.000432812 0.000421823 0.000411921 0.000403131 0.000395473 0.000388964 0.000383619 0.00037945 0.000376465 0.000374672 0.000374074 
0.000352481 0.000353022 0.000354644 0.000357345 0.00036112 0.000365963 0.000371865 0.000378817 0.000386806 0.000395818 0.000405835 0.00041684 0.000428809 0.00044172 0.000455544 0.000470251 0.000485809 0.00050218 0.000519325 0.0005372 0.000555757 0.000574946 0.000594712 0.000614994 0.000635731 0.000656854 0.000678293 0.000699972 0.000721813 0.000743733 0.000765645 0.00078746 0.000809086 0.000830429 0.000851392 0.000871876 0.000891784 0.000911017 0.000929475 0.000947062 0.000963683 0.000979246 0.000993663 0.00100685 0.00101873 0.00102922 0.00103828 0.00104583 0.00105182 0.00105623 0.00105901 0.00106016 0.00105965 0.00105749 0.00105368 0.00104826 0.00104125 0.00103269 0.00102263 0.00101113 0.000998261 0.000984096 0.000968716 0.000952209 0.000934669 0.000916192 0.000896878 0.000876831 0.000856155 0.000834956 0.000813338 0.000791408 0.000769268 0.00074702 0.000724762 0.000702592 0.000680601 0.000658878 0.000637508 0.000616573 0.000596148 0.000576305 0.000557113 0.000538633 0.000520925 0.000504042 0.000488035 0.000472949 0.000458826 0.000445703 0.000433615 0.000422591 0.000412658 0.000403841 0.000396159 0.000389631 0.00038427 0.000380088 0.000377095 0.000375296 0.000374696 
0.000354032 0.000354577 0.000356212 0.000358934 0.000362739 0.00036762 0.00037357 0.000380578 0.000388631 0.000397717 0.000407817 0.000418914 0.000430985 0.000444006 0.00045795 0.000472788 0.000488486 0.000505007 0.000522312 0.000540356 0.000559093 0.000578471 0.000598435 0.000618926 0.00063988 0.000661229 0.000682902 0.000704823 0.000726913 0.000749087 0.00077126 0.00079334 0.000815234 0.000836847 0.00085808 0.000878834 0.00089901 0.000918506 0.000937222 0.00095506 0.000971922 0.000987715 0.00100235 0.00101574 0.0010278 0.00103847 0.00104767 0.00105535 0.00106145 0.00106594 0.00106878 0.00106996 0.00106946 0.00106728 0.00106344 0.00105795 0.00105085 0.00104218 0.00103199 0.00102033 0.00100729 0.000992933 0.000977344 0.000960615 0.000942838 0.000924114 0.000904545 0.000884235 0.00086329 0.000841819 0.000819928 0.000797724 0.000775311 0.000752793 0.000730269 0.000707837 0.000685591 0.00066362 0.000642011 0.000620844 0.000600196 0.000580141 0.000560746 0.000542075 0.000524186 0.000507133 0.000490966 0.000475732 0.000461472 0.000448223 0.00043602 0.000424893 0.000414868 0.00040597 0.000398218 0.00039163 0.000386221 0.000382002 0.000378982 0.000377167 0.000376562 
0.000356613 0.000357165 0.000358822 0.000361579 0.000365434 0.000370379 0.000376407 0.000383508 0.00039167 0.000400878 0.000411117 0.000422367 0.000434608 0.000447814 0.00046196 0.000477015 0.000492947 0.000509718 0.00052729 0.000545618 0.000564655 0.000584349 0.000604645 0.000625484 0.000646801 0.000668528 0.000690593 0.000712919 0.000735425 0.000758026 0.000780635 0.000803158 0.000825502 0.000847567 0.000869254 0.000890461 0.000911085 0.000931023 0.000950173 0.000968431 0.000985699 0.00100188 0.00101688 0.00103061 0.00104299 0.00105394 0.00106339 0.00107128 0.00107756 0.00108219 0.00108513 0.00108637 0.00108589 0.00108368 0.00107977 0.00107418 0.00106693 0.00105806 0.00104765 0.00103573 0.0010224 0.00100772 0.000991778 0.000974673 0.0009565 0.000937362 0.000917363 0.000896611 0.000875217 0.00085329 0.000830939 0.000808276 0.000785406 0.000762434 0.000739464 0.000716595 0.000693922 0.000671536 0.000649524 0.00062797 0.000606951 0.00058654 0.000566807 0.000547814 0.000529622 0.000512284 0.000495852 0.00048037 0.000465881 0.000452423 0.000440028 0.000428728 0.00041855 0.000409516 0.000401647 0.00039496 0.00038947 0.000385188 0.000382123 0.000380282 0.000379668 
0.000360219 0.000360781 0.000362467 0.000365275 0.000369199 0.000374234 0.000380372 0.000387604 0.000395917 0.000405298 0.00041573 0.000427196 0.000439674 0.00045314 0.000467569 0.000482929 0.000499189 0.000516312 0.000534259 0.000552985 0.000572443 0.000592582 0.000613346 0.000634674 0.000656503 0.000678762 0.000701379 0.000724275 0.000747368 0.000770571 0.000793795 0.000816944 0.000839921 0.000862626 0.000884954 0.000906801 0.00092806 0.000948624 0.000968386 0.00098724 0.00100508 0.00102181 0.00103733 0.00105154 0.00106436 0.00107571 0.00108552 0.00109372 0.00110026 0.00110508 0.00110817 0.00110949 0.00110903 0.00110679 0.00110278 0.00109703 0.00108957 0.00108044 0.0010697 0.00105742 0.00104367 0.00102853 0.00101209 0.000994459 0.000975725 0.000955999 0.000935393 0.000914017 0.000891986 0.000869413 0.000846414 0.000823101 0.000799585 0.000775975 0.000752375 0.000728889 0.000705613 0.000682641 0.000660064 0.000637963 0.00061642 0.000595509 0.000575299 0.000555855 0.000537236 0.000519499 0.000502692 0.000486863 0.000472052 0.000458299 0.000445636 0.000434094 0.000423699 0.000414475 0.000406441 0.000399616 0.000394012 0.000389642 0.000386514 0.000384635 0.000384009 
0.000364842 0.000365417 0.000367141 0.000370012 0.000374026 0.000379177 0.000385457 0.000392857 0.000401365 0.000410968 0.000421651 0.000433394 0.000446178 0.00045998 0.000474772 0.000490527 0.00050721 0.000524787 0.000543218 0.000562459 0.000582462 0.000603176 0.000624544 0.000646506 0.000668997 0.000691945 0.000715277 0.000738912 0.000762767 0.000786752 0.000810775 0.000834737 0.000858539 0.000882075 0.000905237 0.000927917 0.000950003 0.000971383 0.000991944 0.00101157 0.00103017 0.00104761 0.0010638 0.00107865 0.00109205 0.00110393 0.0011142 0.0011228 0.00112967 0.00113476 0.00113803 0.00113946 0.00113903 0.00113674 0.00113261 0.00112666 0.00111892 0.00110944 0.00109829 0.00108552 0.00107123 0.00105549 0.00103841 0.00102008 0.00100061 0.000980119 0.00095872 0.000936529 0.000913668 0.000890256 0.000866412 0.000842254 0.000817897 0.000793456 0.000769038 0.00074475 0.000720692 0.000696961 0.000673648 0.000650841 0.000628619 0.000607059 0.000586232 0.000566204 0.000547034 0.000528778 0.000511488 0.000495209 0.000479983 0.000465849 0.000452839 0.000440984 0.00043031 0.000420841 0.000412595 0.00040559 0.000399841 0.000395357 0.000392149 0.000390221 0.000389578 
0.000370471 0.000371061 0.000372833 0.000375782 0.000379906 0.000385198 0.000391651 0.000399257 0.000408005 0.00041788 0.000428869 0.000440953 0.000454113 0.000468325 0.000483565 0.000499803 0.000517007 0.000535141 0.000554167 0.00057404 0.000594714 0.000616136 0.000638249 0.000660992 0.000684298 0.000708097 0.000732311 0.00075686 0.000781656 0.000806608 0.000831619 0.000856589 0.000881411 0.000905978 0.000930176 0.000953891 0.000977004 0.000999398 0.00102095 0.00104155 0.00106108 0.00107941 0.00109645 0.00111209 0.00112622 0.00113875 0.00114961 0.00115871 0.00116599 0.0011714 0.00117491 0.00117647 0.00117608 0.00117374 0.00116945 0.00116325 0.00115516 0.00114525 0.00113357 0.00112021 0.00110524 0.00108875 0.00107086 0.00105166 0.00103128 0.00100984 0.000987453 0.00096425 0.000940357 0.000915901 0.000891008 0.000865801 0.000840403 0.000814931 0.0007895 0.000764219 0.000739194 0.000714524 0.000690304 0.000666622 0.000643563 0.000621203 0.000599616 0.000578867 0.000559018 0.000540125 0.000522239 0.000505408 0.000489672 0.000475069 0.000461633 0.000449394 0.000438377 0.000428606 0.0004201 0.000412876 0.000406947 0.000402324 0.000399016 0.000397029 0.000396366 
0.000377093 0.000377702 0.000379529 0.000382571 0.000386825 0.000392284 0.000398944 0.000406794 0.000415824 0.000426023 0.000437374 0.000449862 0.000463468 0.000478168 0.000493938 0.00051075 0.000528573 0.00054737 0.000567104 0.00058773 0.000609202 0.000631467 0.000654468 0.000678143 0.000702424 0.000727239 0.000752509 0.00077815 0.000804073 0.000830184 0.000856381 0.00088256 0.00090861 0.000934416 0.000959861 0.000984821 0.00100917 0.00103279 0.00105555 0.00107731 0.00109797 0.00111738 0.00113544 0.00115203 0.00116704 0.00118038 0.00119194 0.00120165 0.00120944 0.00121525 0.00121903 0.00122076 0.00122042 0.00121801 0.00121353 0.00120703 0.00119852 0.00118808 0.00117578 0.00116168 0.00114589 0.0011285 0.00110963 0.00108939 0.0010679 0.00104531 0.00102173 0.000997304 0.000972167 0.000946453 0.000920296 0.000893827 0.000867176 0.000840466 0.000813818 0.000787346 0.000761161 0.000735366 0.000710059 0.000685333 0.000661272 0.000637957 0.000615461 0.000593853 0.000573194 0.000553541 0.000534947 0.000517457 0.000501113 0.000485954 0.000472011 0.000459315 0.000447892 0.000437762 0.000428947 0.000421462 0.00041532 0.000410532 0.000407106 0.000405048 0.000404362 
0.000384694 0.000385325 0.000387215 0.000390364 0.000394768 0.000400422 0.000407319 0.000415452 0.00042481 0.000435382 0.000447154 0.00046011 0.000474231 0.000489497 0.000505883 0.000523361 0.000541902 0.00056147 0.000582026 0.000603529 0.00062593 0.000649177 0.000673213 0.000697975 0.000723394 0.000749396 0.000775901 0.000802821 0.000830066 0.000857535 0.000885124 0.000912724 0.000940217 0.000967482 0.000994395 0.00102083 0.00104664 0.0010717 0.00109588 0.00111903 0.00114102 0.00116172 0.00118099 0.00119871 0.00121477 0.00122905 0.00124146 0.00125189 0.00126028 0.00126657 0.00127069 0.00127262 0.00127234 0.00126984 0.00126515 0.00125827 0.00124928 0.00123821 0.00122515 0.00121019 0.00119342 0.00117496 0.00115493 0.00113345 0.00111066 0.0010867 0.00106171 0.00103584 0.00100923 0.000982032 0.000954385 0.00092643 0.000898303 0.000870137 0.000842059 0.00081419 0.000786644 0.00075953 0.00073295 0.000707 0.000681768 0.000657337 0.000633781 0.00061117 0.000589567 0.000569029 0.000549609 0.000531353 0.000514303 0.000498496 0.000483965 0.000470738 0.000458842 0.000448297 0.000439123 0.000431335 0.000424946 0.000419966 0.000416404 0.000414264 0.000413551 
0.000393256 0.00039391 0.000395874 0.000399144 0.000403719 0.000409593 0.00041676 0.000425214 0.000434944 0.000445941 0.000458192 0.00047168 0.00048639 0.0005023 0.000519387 0.000537626 0.000556985 0.000577433 0.00059893 0.000621435 0.000644899 0.000669272 0.000694495 0.000720504 0.00074723 0.000774597 0.000802522 0.000830917 0.000859684 0.000888722 0.00091792 0.000947162 0.000976327 0.00100528 0.0010339 0.00106204 0.00108955 0.0011163 0.00114213 0.0011669 0.00119045 0.00121264 0.00123334 0.00125239 0.00126967 0.00128507 0.00129846 0.00130975 0.00131885 0.00132569 0.00133021 0.00133238 0.00133217 0.00132957 0.00132462 0.00131732 0.00130774 0.00129594 0.00128201 0.00126603 0.00124812 0.0012284 0.00120701 0.00118408 0.00115976 0.00113421 0.00110758 0.00108002 0.00105171 0.00102278 0.000993402 0.000963721 0.000933885 0.000904032 0.000874299 0.000844814 0.000815696 0.000787061 0.000759015 0.000731656 0.000705077 0.000679362 0.000654589 0.000630827 0.000608142 0.00058659 0.000566225 0.000547093 0.000529234 0.000512687 0.000497484 0.000483651 0.000471215 0.000460197 0.000450614 0.00044248 0.00043581 0.000430612 0.000426894 0.000424661 0.000423916 
0.000402757 0.000403439 0.000405484 0.000408891 0.000413656 0.000419777 0.000427247 0.000436061 0.000446209 0.000457683 0.00047047 0.000484556 0.000499926 0.00051656 0.000534436 0.00055353 0.000573813 0.000595252 0.00061781 0.000641445 0.000666112 0.000691757 0.000718323 0.000745746 0.000773955 0.000802871 0.000832411 0.000862483 0.000892985 0.000923812 0.000954847 0.000985969 0.00101705 0.00104794 0.00107852 0.00110862 0.00113809 0.00116677 0.00119451 0.00122114 0.0012465 0.00127043 0.00129276 0.00131336 0.00133207 0.00134875 0.00136329 0.00137557 0.0013855 0.00139299 0.00139798 0.00140042 0.00140029 0.00139759 0.00139233 0.00138455 0.0013743 0.00136164 0.00134669 0.00132953 0.0013103 0.00128913 0.00126616 0.00124156 0.00121547 0.00118808 0.00115955 0.00113006 0.00109977 0.00106886 0.00103749 0.00100583 0.000974032 0.000942249 0.000910623 0.000879291 0.000848381 0.000818011 0.000788295 0.000759334 0.000731225 0.000704053 0.000677898 0.000652833 0.000628922 0.000606224 0.00058479 0.000564668 0.000545898 0.000528516 0.000512555 0.00049804 0.000484997 0.000473445 0.000463401 0.00045488 0.000447893 0.000442449 0.000438556 0.000436218 0.000435439 
0.000413175 0.000413887 0.000416023 0.00041958 0.000424557 0.000430951 0.000438757 0.00044797 0.000458581 0.000470584 0.000483966 0.000498717 0.00051482 0.000532259 0.000551014 0.00057106 0.000592371 0.000614915 0.000638658 0.000663557 0.000689567 0.000716637 0.000744708 0.000773717 0.00080359 0.00083425 0.000865608 0.00089757 0.000930031 0.00096288 0.000995995 0.00102925 0.00106249 0.00109559 0.00112839 0.00116073 0.00119243 0.00122333 0.00125326 0.00128202 0.00130945 0.00133537 0.00135959 0.00138196 0.00140231 0.00142049 0.00143635 0.00144978 0.00146066 0.0014689 0.00147443 0.0014772 0.00147717 0.00147435 0.00146875 0.0014604 0.00144936 0.00143573 0.0014196 0.00140109 0.00138033 0.00135749 0.00133271 0.00130618 0.00127807 0.00124857 0.00121787 0.00118616 0.00115362 0.00112044 0.00108681 0.0010529 0.00101887 0.000984895 0.000951124 0.000917701 0.000884763 0.000852436 0.000820835 0.00079007 0.000760237 0.000731428 0.000703723 0.000677195 0.000651911 0.000627929 0.0006053 0.000584071 0.000564283 0.00054597 0.000529163 0.000513888 0.000500168 0.000488022 0.000477465 0.000468512 0.000461173 0.000455457 0.000451369 0.000448915 0.000448096 
0.000424484 0.000425229 0.000427464 0.000431187 0.000436396 0.00044309 0.000451265 0.000460915 0.000472036 0.00048462 0.000498658 0.000514139 0.00053105 0.000549377 0.000569099 0.000590197 0.000612644 0.00063641 0.000661463 0.000687762 0.000715263 0.000743914 0.000773659 0.000804432 0.000836161 0.000868765 0.000902155 0.000936231 0.000970887 0.001006 0.00104146 0.0010771 0.0011128 0.00114839 0.0011837 0.00121857 0.0012528 0.00128622 0.00131862 0.00134982 0.00137961 0.0014078 0.00143419 0.00145859 0.00148082 0.00150071 0.0015181 0.00153284 0.00154482 0.00155393 0.00156009 0.00156323 0.00156332 0.00156036 0.00155436 0.00154536 0.00153344 0.00151868 0.0015012 0.00148114 0.00145864 0.00143388 0.00140704 0.0013783 0.00134788 0.00131598 0.00128281 0.00124857 0.00121348 0.00117773 0.00114154 0.00110507 0.00106853 0.00103209 0.000995901 0.000960129 0.000924915 0.000890392 0.000856682 0.000823898 0.000792142 0.000761507 0.000732074 0.000703919 0.000677109 0.0006517 0.000627746 0.000605291 0.000584375 0.000565031 0.000547289 0.000531174 0.000516706 0.000503905 0.000492783 0.000483354 0.000475627 0.00046961 0.000465307 0.000462725 0.000461864 
0.000436655 0.000437436 0.000439778 0.000443681 0.000449144 0.000456165 0.000464741 0.000474869 0.000486545 0.000499763 0.000514516 0.000530795 0.00054859 0.000567887 0.000588669 0.000610918 0.000634611 0.000659719 0.000686212 0.000714051 0.000743193 0.000773588 0.000805181 0.000837905 0.000871688 0.000906447 0.000942092 0.000978521 0.00101562 0.00105327 0.00109133 0.00112966 0.0011681 0.00120648 0.00124462 0.00128234 0.00131943 0.00135569 0.00139091 0.00142486 0.00145733 0.0014881 0.00151696 0.00154367 0.00156805 0.0015899 0.00160903 0.00162529 0.00163853 0.00164864 0.00165551 0.00165908 0.00165932 0.0016562 0.00164975 0.00164001 0.00162707 0.00161103 0.00159201 0.00157017 0.00154569 0.00151874 0.00148954 0.00145831 0.00142526 0.00139064 0.00135466 0.00131757 0.00127959 0.00124095 0.00120186 0.00116253 0.00112317 0.00108395 0.00104506 0.00100666 0.000968908 0.000931939 0.000895882 0.000860856 0.000826966 0.000794306 0.000762962 0.000733009 0.000704512 0.000677532 0.000652117 0.000628312 0.000606156 0.00058568 0.000566912 0.000549875 0.000534588 0.000521068 0.000509327 0.000499377 0.000491225 0.000484879 0.000480342 0.000477619 0.000476711 
0.000449656 0.000450475 0.000452934 0.000457032 0.000462769 0.000470143 0.000479154 0.000489799 0.000502076 0.000515981 0.00053151 0.000548655 0.000567409 0.000587761 0.000609696 0.000633199 0.000658249 0.000684821 0.000712886 0.000742409 0.000773348 0.000805656 0.000839276 0.000874145 0.00091019 0.000947327 0.000985462 0.00102449 0.0010643 0.00110476 0.00114572 0.00118703 0.00122853 0.00127004 0.00131135 0.00135226 0.00139257 0.00143203 0.00147042 0.00150749 0.001543 0.0015767 0.00160835 0.0016377 0.00166452 0.0016886 0.00170973 0.00172772 0.00174241 0.00175365 0.00176135 0.00176542 0.00176582 0.00176252 0.00175556 0.00174499 0.00173089 0.00171338 0.00169261 0.00166875 0.001642 0.00161257 0.0015807 0.00154663 0.00151061 0.0014729 0.00143376 0.00139345 0.00135222 0.00131032 0.00126799 0.00122545 0.00118293 0.00114062 0.00109871 0.0010574 0.00101682 0.000977137 0.000938483 0.000900978 0.000864732 0.000829842 0.000796393 0.000764463 0.000734117 0.000705412 0.000678398 0.000653117 0.000629605 0.000607893 0.000588005 0.000569963 0.000553784 0.000539482 0.000527067 0.00051655 0.000507937 0.000501233 0.000496442 0.000493566 0.000492607 
0.000463451 0.000464312 0.000466897 0.000471204 0.000477235 0.000484989 0.000494468 0.000505669 0.000518594 0.00053324 0.000549605 0.000567685 0.000587474 0.000608965 0.000632148 0.000657008 0.00068353 0.00071169 0.000741464 0.000772819 0.000805716 0.000840109 0.000875945 0.000913161 0.000951683 0.00099143 0.0010323 0.0010742 0.001117 0.00116056 0.00120474 0.00124936 0.00129427 0.00133925 0.0013841 0.00142859 0.00147249 0.00151555 0.00155751 0.00159809 0.00163703 0.00167404 0.00170886 0.0017412 0.00177081 0.00179743 0.00182083 0.00184079 0.00185713 0.00186969 0.00187834 0.00188298 0.00188356 0.00188007 0.00187253 0.001861 0.00184558 0.00182641 0.00180364 0.00177748 0.00174816 0.00171592 0.00168101 0.00164373 0.00160435 0.00156316 0.00152046 0.00147652 0.00143165 0.0013861 0.00134014 0.00129402 0.00124797 0.00120223 0.00115698 0.00111242 0.00106872 0.00102605 0.000984528 0.000944295 0.000905461 0.000868124 0.000832371 0.000798278 0.000765911 0.000735325 0.000706569 0.000679681 0.000654695 0.00063164 0.000610538 0.000591406 0.00057426 0.000559111 0.000545968 0.000534838 0.000525726 0.000518635 0.000513569 0.000510528 0.000509515 
0.000478002 0.000478908 0.000481627 0.000486158 0.000492504 0.000500665 0.000510643 0.000522441 0.000536059 0.000551499 0.000568761 0.000587844 0.000608746 0.000631463 0.000655987 0.000682311 0.000710419 0.000740296 0.000771917 0.000805256 0.000840275 0.000876934 0.00091518 0.000954952 0.00099618 0.00103878 0.00108265 0.00112769 0.00117378 0.00122076 0.00126848 0.00131678 0.00136546 0.0014143 0.00146309 0.00151157 0.0015595 0.00160658 0.00165255 0.00169708 0.00173988 0.00178064 0.00181905 0.00185478 0.00188755 0.00191706 0.00194305 0.00196527 0.00198349 0.00199755 0.00200728 0.00201258 0.00201339 0.00200968 0.00200148 0.00198887 0.00197194 0.00195087 0.00192583 0.00189707 0.00186483 0.00182939 0.00179105 0.00175014 0.00170696 0.00166185 0.00161514 0.00156714 0.00151818 0.00146855 0.00141854 0.00136843 0.00131848 0.00126892 0.00121997 0.00117183 0.0011247 0.00107872 0.00103406 0.000990836 0.000949169 0.000909159 0.000870892 0.000834444 0.000799879 0.000767251 0.000736604 0.000707976 0.000681396 0.000656889 0.000634475 0.000614168 0.00059598 0.000579919 0.000565991 0.000554202 0.000544553 0.000537046 0.000531684 0.000528467 0.000527394 