<?xml version="1.0"?>
<VTKFile type="StructuredGrid" version="0.1">
    <StructuredGrid WholeExtent="0 100 0 100 0 0">
        <Piece Extent="0 100 0 100 0 0">
            <Points>
                <DataArray type="Float64" NumberOfComponents="3" format="ascii">
-15 -15 0
-15 -14.7 0
-15 -14.4 0
-15 -14.1 0
-15 -13.8 0
-15 -13.5 0
-15 -13.2 0
-15 -12.9 0
-15 -12.6 0
-15 -12.3 0
-15 -12 0
-15 -11.7 0
-15 -11.4 0
-15 -11.1 0
-15 -10.8 0
-15 -10.5 0
-15 -10.2 0
-15 -9.9 0
-15 -9.6 0
-15 -9.3 0
-15 -9 0
-15 -8.7 0
-15 -8.4 0
-15 -8.1 0
-15 -7.8 0
-15 -7.5 0
-15 -7.2 0
-15 -6.9 0
-15 -6.6 0
-15 -6.3 0
-15 -6 0
-15 -5.7 0
-15 -5.4 0
-15 -5.1 0
-15 -4.8 0
-15 -4.5 0
-15 -4.2 0
-15 -3.9 0
-15 -3.6 0
-15 -3.3 0
-15 -3 0
-15 -2.7 0
-15 -2.4 0
-15 -2.1 0
-15 -1.8 0
-15 -1.5 0
-15 -1.2 0
-15 -0.9 0
-15 -0.6 0
-15 -0.3 0
-15 0 0
-15 0.3 0
-15 0.6 0
-15 0.9 0
-15 1.2 0
-15 1.5 0
-15 1.8 0
-15 2.1 0
-15 2.4 0
-15 2.7 0
-15 3 0
-15 3.3 0
-15 3.6 0
-15 3.9 0
-15 4.2 0
-15 4.5 0
-15 4.8 0
-15 5.1 0
-15 5.4 0
-15 5.7 0
-15 6 0
-15 6.3 0
-15 6.6 0
-15 6.9 0
-15 7.2 0
-15 7.5 0
-15 7.8 0
-15 8.1 0
-15 8.4 0
-15 8.7 0
-15 9 0
-15 9.3 0
-15 9.6 0
-15 9.9 0
-15 10.2 0
-15 10.5 0
-15 10.8 0
-15 11.1 0
-15 11.4 0
-15 11.7 0
-15 12 0
-15 12.3 0
-15 12.6 0
-15 12.9 0
-15 13.2 0
-15 13.5 0
-15 13.8 0
-15 14.1 0
-15 14.4 0
-15 14.7 0
-15 15 0
-14.7 -15 0
-14.7 -14.7 0
-14.7 -14.4 0
-14.7 -14.1 0
-14.7 -13.8 0
-14.7 -13.5 0
-14.7 -13.2 0
-14.7 -12.9 0
-14.7 -12.6 0
-14.7 -12.3 0
-14.7 -12 0
-14.7 -11.7 0
-14.7 -11.4 0
-14.7 -11.1 0
-14.7 -10.8 0
-14.7 -10.5 0
-14.7 -10.2 0
-14.7 -9.9 0
-14.7 -9.6 0
-14.7 -9.3 0
-14.7 -9 0
-14.7 -8.7 0
-14.7 -8.4 0
-14.7 -8.1 0
-14.7 -7.8 0
-14.7 -7.5 0
-14.7 -7.2 0
-14.7 -6.9 0
-14.7 -6.6 0
-14.7 -6.3 0
-14.7 -6 0
-14.7 -5.7 0
-14.7 -5.4 0
-14.7 -5.1 0
-14.7 -4.8 0
-14.7 -4.5 0
-14.7 -4.2 0
-14.7 -3.9 0
-14.7 -3.6 0
-14.7 -3.3 0
-14.7 -3 0
-14.7 -2.7 0
-14.7 -2.4 0
-14.7 -2.1 0
-14.7 -1.8 0
-14.7 -1.5 0
-14.7 -1.2 0
-14.7 -0.9 0
-14.7 -0.6 0
-14.7 -0.3 0
-14.7 0 0
-14.7 0.3 0
-14.7 0.6 0
-14.7 0.9 0
-14.7 1.2 0
-14.7 1.5 0
-14.7 1.8 0
-14.7 2.1 0
-14.7 2.4 0
-14.7 2.7 0
-14.7 3 0
-14.7 3.3 0
-14.7 3.6 0
-14.7 3.9 0
-14.7 4.2 0
-14.7 4.5 0
-14.7 4.8 0
-14.7 5.1 0
-14.7 5.4 0
-14.7 5.7 0
-14.7 6 0
-14.7 6.3 0
-14.7 6.6 0
-14.7 6.9 0
-14.7 7.2 0
-14.7 7.5 0
-14.7 7.8 0
-14.7 8.1 0
-14.7 8.4 0
-14.7 8.7 0
-14.7 9 0
-14.7 9.3 0
-14.7 9.6 0
-14.7 9.9 0
-14.7 10.2 0
-14.7 10.5 0
-14.7 10.8 0
-14.7 11.1 0
-14.7 11.4 0
-14.7 11.7 0
-14.7 12 0
-14.7 12.3 0
-14.7 12.6 0
-14.7 12.9 0
-14.7 13.2 0
-14.7 13.5 0
-14.7 13.8 0
-14.7 14.1 0
-14.7 14.4 0
-14.7 14.7 0
-14.7 15 0
-14.4 -15 0
-14.4 -14.7 0
-14.4 -14.4 0
-14.4 -14.1 0
-14.4 -13.8 0
-14.4 -13.5 0
-14.4 -13.2 0
-14.4 -12.9 0
-14.4 -12.6 0
-14.4 -12.3 0
-14.4 -12 0
-14.4 -11.7 0
-14.4 -11.4 0
-14.4 -11.1 0
-14.4 -10.8 0
-14.4 -10.5 0
-14.4 -10.2 0
-14.4 -9.9 0
-14.4 -9.6 0
-14.4 -9.3 0
-14.4 -9 0
-14.4 -8.7 0
-14.4 -8.4 0
-14.4 -8.1 0
-14.4 -7.8 0
-14.4 -7.5 0
-14.4 -7.2 0
-14.4 -6.9 0
-14.4 -6.6 0
-14.4 -6.3 0
-14.4 -6 0
-14.4 -5.7 0
-14.4 -5.4 0
-14.4 -5.1 0
-14.4 -4.8 0
-14.4 -4.5 0
-14.4 -4.2 0
-14.4 -3.9 0
-14.4 -3.6 0
-14.4 -3.3 0
-14.4 -3 0
-14.4 -2.7 0
-14.4 -2.4 0
-14.4 -2.1 0
-14.4 -1.8 0
-14.4 -1.5 0
-14.4 -1.2 0
-14.4 -0.9 0
-14.4 -0.6 0
-14.4 -0.3 0
-14.4 0 0
-14.4 0.3 0
-14.4 0.6 0
-14.4 0.9 0
-14.4 1.2 0
-14.4 1.5 0
-14.4 1.8 0
-14.4 2.1 0
-14.4 2.4 0
-14.4 2.7 0
-14.4 3 0
-14.4 3.3 0
-14.4 3.6 0
-14.4 3.9 0
-14.4 4.2 0
-14.4 4.5 0
-14.4 4.8 0
-14.4 5.1 0
-14.4 5.4 0
-14.4 5.7 0
-14.4 6 0
-14.4 6.3 0
-14.4 6.6 0
-14.4 6.9 0
-14.4 7.2 0
-14.4 7.5 0
-14.4 7.8 0
-14.4 8.1 0
-14.4 8.4 0
-14.4 8.7 0
-14.4 9 0
-14.4 9.3 0
-14.4 9.6 0
-14.4 9.9 0
-14.4 10.2 0
-14.4 10.5 0
-14.4 10.8 0
-14.4 11.1 0
-14.4 11.4 0
-14.4 11.7 0
-14.4 12 0
-14.4 12.3 0
-14.4 12.6 0
-14.4 12.9 0
-14.4 13.2 0
-14.4 13.5 0
-14.4 13.8 0
-14.4 14.1 0
-14.4 14.4 0
-14.4 14.7 0
-14.4 15 0
-14.1 -15 0
-14.1 -14.7 0
-14.1 -14.4 0
-14.1 -14.1 0
-14.1 -13.8 0
-14.1 -13.5 0
-14.1 -13.2 0
-14.1 -12.9 0
-14.1 -12.6 0
-14.1 -12.3 0
-14.1 -12 0
-14.1 -11.7 0
-14.1 -11.4 0
-14.1 -11.1 0
-14.1 -10.8 0
-14.1 -10.5 0
-14.1 -10.2 0
-14.1 -9.9 0
-14.1 -9.6 0
-14.1 -9.3 0
-14.1 -9 0
-14.1 -8.7 0
-14.1 -8.4 0
-14.1 -8.1 0
-14.1 -7.8 0
-14.1 -7.5 0
-14.1 -7.2 0
-14.1 -6.9 0
-14.1 -6.6 0
-14.1 -6.3 0
-14.1 -6 0
-14.1 -5.7 0
-14.1 -5.4 0
-14.1 -5.1 0
-14.1 -4.8 0
-14.1 -4.5 0
-14.1 -4.2 0
-14.1 -3.9 0
-14.1 -3.6 0
-14.1 -3.3 0
-14.1 -3 0
-14.1 -2.7 0
-14.1 -2.4 0
-14.1 -2.1 0
-14.1 -1.8 0
-14.1 -1.5 0
-14.1 -1.2 0
-14.1 -0.9 0
-14.1 -0.6 0
-14.1 -0.3 0
-14.1 0 0
-14.1 0.3 0
-14.1 0.6 0
-14.1 0.9 0
-14.1 1.2 0
-14.1 1.5 0
-14.1 1.8 0
-14.1 2.1 0
-14.1 2.4 0
-14.1 2.7 0
-14.1 3 0
-14.1 3.3 0
-14.1 3.6 0
-14.1 3.9 0
-14.1 4.2 0
-14.1 4.5 0
-14.1 4.8 0
-14.1 5.1 0
-14.1 5.4 0
-14.1 5.7 0
-14.1 6 0
-14.1 6.3 0
-14.1 6.6 0
-14.1 6.9 0
-14.1 7.2 0
-14.1 7.5 0
-14.1 7.8 0
-14.1 8.1 0
-14.1 8.4 0
-14.1 8.7 0
-14.1 9 0
-14.1 9.3 0
-14.1 9.6 0
-14.1 9.9 0
-14.1 10.2 0
-14.1 10.5 0
-14.1 10.8 0
-14.1 11.1 0
-14.1 11.4 0
-14.1 11.7 0
-14.1 12 0
-14.1 12.3 0
-14.1 12.6 0
-14.1 12.9 0
-14.1 13.2 0
-14.1 13.5 0
-14.1 13.8 0
-14.1 14.1 0
-14.1 14.4 0
-14.1 14.7 0
-14.1 15 0
-13.8 -15 0
-13.8 -14.7 0
-13.8 -14.4 0
-13.8 -14.1 0
-13.8 -13.8 0
-13.8 -13.5 0
-13.8 -13.2 0
-13.8 -12.9 0
-13.8 -12.6 0
-13.8 -12.3 0
-13.8 -12 0
-13.8 -11.7 0
-13.8 -11.4 0
-13.8 -11.1 0
-13.8 -10.8 0
-13.8 -10.5 0
-13.8 -10.2 0
-13.8 -9.9 0
-13.8 -9.6 0
-13.8 -9.3 0
-13.8 -9 0
-13.8 -8.7 0
-13.8 -8.4 0
-13.8 -8.1 0
-13.8 -7.8 0
-13.8 -7.5 0
-13.8 -7.2 0
-13.8 -6.9 0
-13.8 -6.6 0
-13.8 -6.3 0
-13.8 -6 0
-13.8 -5.7 0
-13.8 -5.4 0
-13.8 -5.1 0
-13.8 -4.8 0
-13.8 -4.5 0
-13.8 -4.2 0
-13.8 -3.9 0
-13.8 -3.6 0
-13.8 -3.3 0
-13.8 -3 0
-13.8 -2.7 0
-13.8 -2.4 0
-13.8 -2.1 0
-13.8 -1.8 0
-13.8 -1.5 0
-13.8 -1.2 0
-13.8 -0.9 0
-13.8 -0.6 0
-13.8 -0.3 0
-13.8 0 0
-13.8 0.3 0
-13.8 0.6 0
-13.8 0.9 0
-13.8 1.2 0
-13.8 1.5 0
-13.8 1.8 0
-13.8 2.1 0
-13.8 2.4 0
-13.8 2.7 0
-13.8 3 0
-13.8 3.3 0
-13.8 3.6 0
-13.8 3.9 0
-13.8 4.2 0
-13.8 4.5 0
-13.8 4.8 0
-13.8 5.1 0
-13.8 5.4 0
-13.8 5.7 0
-13.8 6 0
-13.8 6.3 0
-13.8 6.6 0
-13.8 6.9 0
-13.8 7.2 0
-13.8 7.5 0
-13.8 7.8 0
-13.8 8.1 0
-13.8 8.4 0
-13.8 8.7 0
-13.8 9 0
-13.8 9.3 0
-13.8 9.6 0
-13.8 9.9 0
-13.8 10.2 0
-13.8 10.5 0
-13.8 10.8 0
-13.8 11.1 0
-13.8 11.4 0
-13.8 11.7 0
-13.8 12 0
-13.8 12.3 0
-13.8 12.6 0
-13.8 12.9 0
-13.8 13.2 0
-13.8 13.5 0
-13.8 13.8 0
-13.8 14.1 0
-13.8 14.4 0
-13.8 14.7 0
-13.8 15 0
-13.5 -15 0
-13.5 -14.7 0
-13.5 -14.4 0
-13.5 -14.1 0
-13.5 -13.8 0
-13.5 -13.5 0
-13.5 -13.2 0
-13.5 -12.9 0
-13.5 -12.6 0
-13.5 -12.3 0
-13.5 -12 0
-13.5 -11.7 0
-13.5 -11.4 0
-13.5 -11.1 0
-13.5 -10.8 0
-13.5 -10.5 0
-13.5 -10.2 0
-13.5 -9.9 0
-13.5 -9.6 0
-13.5 -9.3 0
-13.5 -9 0
-13.5 -8.7 0
-13.5 -8.4 0
-13.5 -8.1 0
-13.5 -7.8 0
-13.5 -7.5 0
-13.5 -7.2 0
-13.5 -6.9 0
-13.5 -6.6 0
-13.5 -6.3 0
-13.5 -6 0
-13.5 -5.7 0
-13.5 -5.4 0
-13.5 -5.1 0
-13.5 -4.8 0
-13.5 -4.5 0
-13.5 -4.2 0
-13.5 -3.9 0
-13.5 -3.6 0
-13.5 -3.3 0
-13.5 -3 0
-13.5 -2.7 0
-13.5 -2.4 0
-13.5 -2.1 0
-13.5 -1.8 0
-13.5 -1.5 0
-13.5 -1.2 0
-13.5 -0.9 0
-13.5 -0.6 0
-13.5 -0.3 0
-13.5 0 0
-13.5 0.3 0
-13.5 0.6 0
-13.5 0.9 0
-13.5 1.2 0
-13.5 1.5 0
-13.5 1.8 0
-13.5 2.1 0
-13.5 2.4 0
-13.5 2.7 0
-13.5 3 0
-13.5 3.3 0
-13.5 3.6 0
-13.5 3.9 0
-13.5 4.2 0
-13.5 4.5 0
-13.5 4.8 0
-13.5 5.1 0
-13.5 5.4 0
-13.5 5.7 0
-13.5 6 0
-13.5 6.3 0
-13.5 6.6 0
-13.5 6.9 0
-13.5 7.2 0
-13.5 7.5 0
-13.5 7.8 0
-13.5 8.1 0
-13.5 8.4 0
-13.5 8.7 0
-13.5 9 0
-13.5 9.3 0
-13.5 9.6 0
-13.5 9.9 0
-13.5 10.2 0
-13.5 10.5 0
-13.5 10.8 0
-13.5 11.1 0
-13.5 11.4 0
-13.5 11.7 0
-13.5 12 0
-13.5 12.3 0
-13.5 12.6 0
-13.5 12.9 0
-13.5 13.2 0
-13.5 13.5 0
-13.5 13.8 0
-13.5 14.1 0
-13.5 14.4 0
-13.5 14.7 0
-13.5 15 0
-13.2 -15 0
-13.2 -14.7 0
-13.2 -14.4 0
-13.2 -14.1 0
-13.2 -13.8 0
-13.2 -13.5 0
-13.2 -13.2 0
-13.2 -12.9 0
-13.2 -12.6 0
-13.2 -12.3 0
-13.2 -12 0
-13.2 -11.7 0
-13.2 -11.4 0
-13.2 -11.1 0
-13.2 -10.8 0
-13.2 -10.5 0
-13.2 -10.2 0
-13.2 -9.9 0
-13.2 -9.6 0
-13.2 -9.3 0
-13.2 -9 0
-13.2 -8.7 0
-13.2 -8.4 0
-13.2 -8.1 0
-13.2 -7.8 0
-13.2 -7.5 0
-13.2 -7.2 0
-13.2 -6.9 0
-13.2 -6.6 0
-13.2 -6.3 0
-13.2 -6 0
-13.2 -5.7 0
-13.2 -5.4 0
-13.2 -5.1 0
-13.2 -4.8 0
-13.2 -4.5 0
-13.2 -4.2 0
-13.2 -3.9 0
-13.2 -3.6 0
-13.2 -3.3 0
-13.2 -3 0
-13.2 -2.7 0
-13.2 -2.4 0
-13.2 -2.1 0
-13.2 -1.8 0
-13.2 -1.5 0
-13.2 -1.2 0
-13.2 -0.9 0
-13.2 -0.6 0
-13.2 -0.3 0
-13.2 0 0
-13.2 0.3 0
-13.2 0.6 0
-13.2 0.9 0
-13.2 1.2 0
-13.2 1.5 0
-13.2 1.8 0
-13.2 2.1 0
-13.2 2.4 0
-13.2 2.7 0
-13.2 3 0
-13.2 3.3 0
-13.2 3.6 0
-13.2 3.9 0
-13.2 4.2 0
-13.2 4.5 0
-13.2 4.8 0
-13.2 5.1 0
-13.2 5.4 0
-13.2 5.7 0
-13.2 6 0
-13.2 6.3 0
-13.2 6.6 0
-13.2 6.9 0
-13.2 7.2 0
-13.2 7.5 0
-13.2 7.8 0
-13.2 8.1 0
-13.2 8.4 0
-13.2 8.7 0
-13.2 9 0
-13.2 9.3 0
-13.2 9.6 0
-13.2 9.9 0
-13.2 10.2 0
-13.2 10.5 0
-13.2 10.8 0
-13.2 11.1 0
-13.2 11.4 0
-13.2 11.7 0
-13.2 12 0
-13.2 12.3 0
-13.2 12.6 0
-13.2 12.9 0
-13.2 13.2 0
-13.2 13.5 0
-13.2 13.8 0
-13.2 14.1 0
-13.2 14.4 0
-13.2 14.7 0
-13.2 15 0
-12.9 -15 0
-12.9 -14.7 0
-12.9 -14.4 0
-12.9 -14.1 0
-12.9 -13.8 0
-12.9 -13.5 0
-12.9 -13.2 0
-12.9 -12.9 0
-12.9 -12.6 0
-12.9 -12.3 0
-12.9 -12 0
-12.9 -11.7 0
-12.9 -11.4 0
-12.9 -11.1 0
-12.9 -10.8 0
-12.9 -10.5 0
-12.9 -10.2 0
-12.9 -9.9 0
-12.9 -9.6 0
-12.9 -9.3 0
-12.9 -9 0
-12.9 -8.7 0
-12.9 -8.4 0
-12.9 -8.1 0
-12.9 -7.8 0
-12.9 -7.5 0
-12.9 -7.2 0
-12.9 -6.9 0
-12.9 -6.6 0
-12.9 -6.3 0
-12.9 -6 0
-12.9 -5.7 0
-12.9 -5.4 0
-12.9 -5.1 0
-12.9 -4.8 0
-12.9 -4.5 0
-12.9 -4.2 0
-12.9 -3.9 0
-12.9 -3.6 0
-12.9 -3.3 0
-12.9 -3 0
-12.9 -2.7 0
-12.9 -2.4 0
-12.9 -2.1 0
-12.9 -1.8 0
-12.9 -1.5 0
-12.9 -1.2 0
-12.9 -0.9 0
-12.9 -0.6 0
-12.9 -0.3 0
-12.9 0 0
-12.9 0.3 0
-12.9 0.6 0
-12.9 0.9 0
-12.9 1.2 0
-12.9 1.5 0
-12.9 1.8 0
-12.9 2.1 0
-12.9 2.4 0
-12.9 2.7 0
-12.9 3 0
-12.9 3.3 0
-12.9 3.6 0
-12.9 3.9 0
-12.9 4.2 0
-12.9 4.5 0
-12.9 4.8 0
-12.9 5.1 0
-12.9 5.4 0
-12.9 5.7 0
-12.9 6 0
-12.9 6.3 0
-12.9 6.6 0
-12.9 6.9 0
-12.9 7.2 0
-12.9 7.5 0
-12.9 7.8 0
-12.9 8.1 0
-12.9 8.4 0
-12.9 8.7 0
-12.9 9 0
[...]
            <PointData>
                <DataArray type="Float64" Name="c1" format="ascii">
0.00330482 0.00330818 0.00331829 0.00333512 0.00335868 0.00338897 0.00342597 0.00346968 0.00352009 0.00357717 0.0036409 0.00371126 0.00378822 0.00387172 0.00396173 0.00405816 0.00416096 0.00427003 0.00438525 0.00450652 0.00463366 0.00476652 0.00490489 0.00504853 0.00519718 0.00535054 0.00550826 0.00566993 0.00583512 0.00600331 0.00617397 0.00634645 0.00652009 0.00669413 0.00686775 0.00704009 0.00721022 0.00737715 0.00753985 0.00769728 0.00784837 0.00799203 0.00812721 0.00825287 0.00836803 0.00847177 0.00856323 0.00864167 0.00870643 0.00875699 0.00879293 0.00881397 0.00881998 0.00881095 0.00878702 0.00874845 0.00869564 0.0086291 0.00854945 0.00845741 0.00835379 0.00823946 0.00811537 0.00798252 0.00784193 0.00769466 0.00754176 0.00738431 0.00722333 0.00705982 0.00689477 0.00672908 0.00656361 0.00639916 0.00623647 0.00607621 0.005919 0.00576539 0.00561587 0.00547089 0.00533084 0.00519608 0.00506692 0.00494362 0.00482643 0.00471556 0.00461119 0.00451349 0.00442258 0.0043386 0.00426165 0.0041918 0.00412914 0.00407372 0.0040256 0.00398482 0.00395141 0.00392539 0.0039068 0.00389564 0.00389192 
0.00330645 0.00330982 0.00331994 0.00333681 0.00336041 0.00339075 0.00342782 0.00347161 0.0035221 0.00357929 0.00364314 0.00371364 0.00379075 0.00387442 0.00396462 0.00406126 0.00416428 0.0042736 0.0043891 0.00451065 0.00463812 0.00477133 0.00491007 0.00505412 0.00520321 0.00535704 0.00551526 0.00567748 0.00584324 0.00601206 0.00618336 0.00635653 0.00653089 0.00670568 0.00688008 0.00705323 0.00722418 0.00739194 0.00755548 0.00771374 0.00786564 0.00801009 0.00814603 0.00827241 0.00838825 0.0084926 0.00858461 0.00866353 0.0087287 0.00877958 0.00881576 0.00883696 0.00884304 0.00883398 0.00880993 0.00877116 0.00871805 0.00865113 0.00857102 0.00847844 0.00837421 0.00825922 0.00813441 0.00800079 0.00785939 0.00771129 0.00755756 0.00739925 0.00723741 0.00707307 0.0069072 0.00674071 0.00657448 0.0064093 0.00624591 0.006085 0.00592717 0.00577297 0.00562291 0.00547743 0.00533692 0.00520172 0.00507216 0.00494849 0.00483096 0.00471978 0.00461514 0.00451718 0.00442604 0.00434186 0.00426471 0.0041947 0.00413189 0.00407635 0.00402812 0.00398724 0.00395376 0.00392769 0.00390906 0.00389787 0.00389414 
0.00331134 0.00331473 0.00332491 0.00334186 0.00336558 0.00339608 0.00343335 0.00347737 0.00352815 0.00358565 0.00364987 0.00372077 0.00379834 0.00388252 0.00397327 0.00407054 0.00417424 0.0042843 0.00440061 0.00452306 0.00465149 0.00478574 0.00492561 0.00507089 0.0052213 0.00537654 0.00553628 0.00570012 0.00586762 0.00603828 0.00621154 0.00638678 0.0065633 0.00674035 0.00691711 0.00709267 0.00726609 0.00743635 0.00760241 0.00776317 0.00791753 0.00806437 0.0082026 0.00833115 0.008449 0.0085552 0.00864887 0.00872924 0.00879563 0.0088475 0.00888441 0.00890608 0.00891235 0.00890322 0.00887882 0.00883943 0.00878543 0.00871737 0.00863587 0.00854168 0.00843562 0.00831861 0.00819163 0.00805569 0.00791188 0.00776128 0.00760499 0.00744411 0.00727972 0.00711285 0.00694451 0.00677562 0.00660709 0.0064397 0.00627423 0.00611134 0.00595165 0.00579571 0.00564403 0.00549703 0.00535512 0.00521863 0.00508786 0.0049631 0.00484456 0.00473246 0.00462697 0.00452824 0.00443641 0.0043516 0.0042739 0.00420339 0.00414014 0.00408422 0.00403567 0.00399452 0.00396082 0.00393458 0.00391583 0.00390457 0.00390082 
0.00331947 0.00332289 0.00333315 0.00335025 0.00337418 0.00340495 0.00344254 0.00348696 0.00353819 0.00359622 0.00366104 0.00373263 0.00381095 0.00389598 0.00398767 0.00408597 0.00419081 0.00430211 0.00441977 0.00454369 0.00467373 0.00480972 0.00495148 0.00509879 0.0052514 0.00540901 0.00557129 0.00573785 0.00590825 0.006082 0.00625853 0.00643722 0.00661736 0.0067982 0.00697889 0.00715851 0.00733607 0.00751054 0.00768082 0.00784578 0.00800426 0.00815511 0.00829718 0.00842937 0.0085506 0.0086599 0.00875635 0.00883915 0.0089076 0.00896112 0.00899927 0.00902173 0.00902835 0.0090191 0.00899413 0.00895369 0.00889821 0.00882823 0.0087444 0.00864749 0.00853837 0.00841798 0.00828734 0.00814751 0.00799962 0.00784481 0.00768424 0.00751904 0.00735035 0.00717924 0.00700676 0.00683386 0.00666146 0.00649039 0.00632142 0.00615522 0.00599242 0.00583358 0.00567918 0.00552967 0.00538541 0.00524676 0.005114 0.0049874 0.00486718 0.00475353 0.00464664 0.00454664 0.00445366 0.0043678 0.00428917 0.00421783 0.00415386 0.00409731 0.00404821 0.00400662 0.00397255 0.00394603 0.00392707 0.0039157 0.0039119 
0.00333081 0.00333427 0.00334465 0.00336194 0.00338616 0.0034173 0.00345535 0.00350032 0.00355219 0.00361097 0.00367663 0.00374917 0.00382855 0.00391476 0.00400776 0.0041075 0.00421392 0.00432696 0.00444652 0.0045725 0.00470479 0.00484322 0.00498762 0.00513779 0.00529348 0.00545441 0.00562025 0.00579062 0.0059651 0.00614318 0.00632432 0.00650787 0.00669313 0.00687931 0.00706555 0.0072509 0.00743432 0.00761474 0.007791 0.0079619 0.00812622 0.00828274 0.00843024 0.00856756 0.00869357 0.00880724 0.00890762 0.00899386 0.00906522 0.00912109 0.009161 0.00918461 0.00919173 0.00918234 0.00915656 0.00911467 0.0090571 0.00898441 0.00889728 0.00879654 0.00868307 0.00855788 0.00842204 0.0082767 0.00812303 0.00796225 0.00779559 0.00762428 0.00744949 0.00727238 0.00709404 0.00691547 0.00673763 0.00656137 0.00638746 0.00621662 0.00604946 0.00588653 0.00572833 0.00557527 0.00542774 0.00528605 0.0051505 0.00502133 0.00489875 0.00478295 0.00467409 0.00457231 0.00447771 0.0043904 0.00431047 0.00423798 0.00417299 0.00411556 0.00406571 0.00402348 0.0039889 0.00396199 0.00394275 0.00393121 0.00392736 
0.00334529 0.0033488 0.00335934 0.0033769 0.00340148 0.00343309 0.00347173 0.0035174 0.0035701 0.00362982 0.00369657 0.00377032 0.00385107 0.00393879 0.00403347 0.00413506 0.00424351 0.00435878 0.00448078 0.00460942 0.00474459 0.00488616 0.00503396 0.0051878 0.00534746 0.00551266 0.0056831 0.0058584 0.00603814 0.00622184 0.00640893 0.00659878 0.00679067 0.00698379 0.00717725 0.00737004 0.0075611 0.00774927 0.00793332 0.00811197 0.00828391 0.00844782 0.0086024 0.0087464 0.00887863 0.00899799 0.00910347 0.00919419 0.00926935 0.0093283 0.00937054 0.00939567 0.00940349 0.00939395 0.00936715 0.00932339 0.00926311 0.00918689 0.00909548 0.00898971 0.00887057 0.0087391 0.00859646 0.00844388 0.00828264 0.00811405 0.00793943 0.00776011 0.00757738 0.00739244 0.00720647 0.00702054 0.00683563 0.00665263 0.00647235 0.00629549 0.00612269 0.00595449 0.00579137 0.00563376 0.005482 0.00533642 0.00519727 0.0050648 0.00493919 0.00482063 0.00470924 0.00460517 0.0045085 0.00441932 0.00433772 0.00426375 0.00419746 0.00413889 0.00408808 0.00404504 0.00400981 0.00398239 0.00396279 0.00395103 0.00394711 
0.00336286 0.00336643 0.00337716 0.00339503 0.00342006 0.00345226 0.00349161 0.00353814 0.00359184 0.00365271 0.00372077 0.00379601 0.00387841 0.00396799 0.00406471 0.00416855 0.00427949 0.00439747 0.00452244 0.00465433 0.00479303 0.00493843 0.00509039 0.00524873 0.00541325 0.00558369 0.00575976 0.00594111 0.00612733 0.00631793 0.00651236 0.00670998 0.00691006 0.00711176 0.00731415 0.00751619 0.00771674 0.00791454 0.0081083 0.0082966 0.00847802 0.00865113 0.0088145 0.00896679 0.00910672 0.00923311 0.00934492 0.00944118 0.00952107 0.00958389 0.00962906 0.00965615 0.00966491 0.00965524 0.00962724 0.00958119 0.00951756 0.00943697 0.00934021 0.0092282 0.00910196 0.00896265 0.00881151 0.00864988 0.00847916 0.00830079 0.00811623 0.00792693 0.00773428 0.00753961 0.00734418 0.00714911 0.00695546 0.00676415 0.00657601 0.00639175 0.00621202 0.00603735 0.00586821 0.00570501 0.00554809 0.00539773 0.00525419 0.00511769 0.00498838 0.00486644 0.00475197 0.0046451 0.0045459 0.00445446 0.00437082 0.00429505 0.00422717 0.00416722 0.00411523 0.00407121 0.00403518 0.00400714 0.00398711 0.00397509 0.00397108 
0.00338343 0.00338708 0.00339803 0.00341628 0.00344183 0.0034747 0.0035149 0.00356243 0.00361731 0.00367955 0.00374915 0.00382613 0.00391049 0.00400224 0.00410137 0.00420787 0.00432173 0.00444292 0.0045714 0.00470711 0.00484997 0.00499991 0.00515678 0.00532045 0.00549073 0.00566738 0.00585014 0.00603868 0.00623259 0.00643141 0.00663459 0.00684149 0.00705136 0.00726334 0.00747646 0.00768962 0.00790158 0.00811103 0.0083165 0.00851647 0.00870936 0.00889357 0.00906754 0.0092298 0.00937896 0.00951379 0.00963317 0.0097361 0.00982171 0.00988923 0.00993803 0.00996759 0.00997758 0.00996785 0.00993847 0.00988972 0.00982209 0.00973624 0.00963302 0.00951344 0.0093786 0.00922976 0.00906829 0.00889565 0.0087134 0.00852315 0.00832652 0.00812512 0.00792049 0.00771409 0.00750726 0.00730124 0.00709712 0.00689588 0.00669836 0.00650529 0.00631732 0.00613497 0.00595869 0.00578887 0.00562583 0.00546984 0.00532111 0.00517983 0.00504617 0.00492023 0.00480214 0.00469197 0.0045898 0.00449567 0.00440964 0.00433174 0.004262 0.00420043 0.00414705 0.00410187 0.0040649 0.00403614 0.0040156 0.00400327 0.00399916 
0.00340692 0.00341065 0.00342186 0.00344053 0.00346669 0.00350034 0.0035415 0.00359019 0.00364641 0.00371021 0.00378158 0.00386057 0.00394717 0.00404142 0.00414331 0.00425287 0.00437009 0.00449497 0.00462748 0.0047676 0.00491527 0.00507043 0.00523298 0.0054028 0.00557974 0.00576358 0.00595409 0.00615096 0.00635381 0.0065622 0.00677558 0.00699331 0.00721463 0.00743866 0.00766437 0.00789061 0.00811605 0.00833925 0.00855861 0.00877242 0.00897892 0.00917629 0.00936278 0.00953676 0.00969674 0.00984142 0.00996966 0.0100804 0.0101728 0.010246 0.0102992 0.0103318 0.0103434 0.0103338 0.0103029 0.010251 0.0101787 0.0100866 0.00997577 0.00984718 0.00970211 0.00954192 0.00936812 0.00918234 0.00898633 0.0087819 0.0085709 0.00835512 0.0081363 0.00791604 0.0076958 0.00747692 0.00726055 0.0070477 0.00683926 0.00663595 0.00643841 0.00624715 0.00606262 0.00588515 0.00571504 0.00555254 0.00539782 0.00525106 0.00511237 0.00498184 0.00485957 0.00474562 0.00464002 0.00454282 0.00445404 0.0043737 0.00430181 0.00423838 0.00418341 0.0041369 0.00409886 0.00406927 0.00404813 0.00403546 0.00403123 
0.00343322 0.00343705 0.00344853 0.00346769 0.00349452 0.00352905 0.0035713 0.00362128 0.00367903 0.00374457 0.00381795 0.00389918 0.00398831 0.00408537 0.00419039 0.0043034 0.00442441 0.00455346 0.00469053 0.00483563 0.00498874 0.00514981 0.0053188 0.0054956 0.00568009 0.00587211 0.00607144 0.0062778 0.00649086 0.00671018 0.00693524 0.00716539 0.00739988 0.00763779 0.00787805 0.00811944 0.00836055 0.00859979 0.00883539 0.00906543 0.00928788 0.00950065 0.00970173 0.00988927 0.0100617 0.0102177 0.0103561 0.0104759 0.0105761 0.0106559 0.0107145 0.010751 0.0107648 0.0107555 0.010723 0.0106676 0.0105898 0.0104905 0.0103707 0.0102315 0.0100744 0.00990087 0.00971253 0.00951124 0.00929898 0.00907785 0.00884995 0.00861734 0.00838195 0.00814557 0.0079098 0.00767607 0.0074456 0.00721945 0.0069985 0.0067835 0.00657505 0.00637367 0.00617974 0.00599359 0.00581548 0.0056456 0.00548411 0.00533114 0.00518676 0.00505106 0.00492407 0.00480584 0.00469638 0.00459571 0.00450383 0.00442074 0.00434644 0.00428091 0.00422415 0.00417615 0.00413689 0.00410637 0.00408457 0.00407149 0.00406714 
0.0034622 0.00346613 0.00347794 0.00349763 0.00352521 0.00356071 0.00360415 0.00365557 0.00371501 0.0037825 0.00385809 0.00394182 0.00403376 0.00413394 0.00424243 0.00435927 0.0044845 0.00461817 0.00476033 0.00491098 0.00507015 0.00523783 0.00541399 0.0055986 0.00579155 0.00599273 0.00620195 0.006419 0.00664354 0.00687518 0.00711343 0.00735764 0.00760706 0.00786076 0.00811763 0.00837637 0.00863548 0.00889324 0.00914767 0.00939661 0.00963766 0.00986836 0.0100863 0.0102893 0.0104758 0.0106445 0.0107943 0.0109243 0.0110336 0.0111213 0.0111864 0.0112277 0.0112444 0.0112359 0.0112018 0.0111424 0.0110583 0.0109506 0.0108203 0.0106689 0.0104978 0.0103086 0.0101033 0.00988381 0.00965253 0.00941186 0.00916427 0.00891211 0.00865759 0.00840269 0.00814916 0.00789852 0.00765205 0.00741085 0.0071758 0.00694763 0.00672695 0.0065142 0.00630976 0.00611391 0.00592685 0.00574875 0.00557971 0.00541981 0.00526911 0.00512764 0.00499541 0.00487242 0.00475867 0.00465414 0.00455882 0.00447268 0.0043957 0.00432784 0.0042691 0.00421944 0.00417883 0.00414727 0.00412474 0.00411123 0.00410673 
0.00349373 0.00349778 0.00350994 0.0035302 0.0035586 0.00359517 0.00363993 0.00369292 0.0037542 0.00382382 0.00390183 0.00398831 0.00408332 0.00418693 0.00429922 0.00442026 0.00455013 0.0046889 0.00483664 0.0049934 0.00515925 0.00533421 0.00551831 0.00571153 0.00591384 0.00612516 0.00634537 0.00657426 0.00681158 0.00705696 0.00730993 0.00756989 0.00783607 0.00810753 0.00838315 0.00866157 0.0089412 0.00922019 0.00949637 0.00976725 0.01003 0.0102815 0.0105189 0.0107395 0.0109416 0.0111242 0.0112866 0.011428 0.0115476 0.0116446 0.0117176 0.0117651 0.0117858 0.0117785 0.0117429 0.011679 0.0115878 0.0114702 0.0113278 0.0111621 0.0109748 0.0107675 0.0105424 0.0103017 0.0100482 0.00978478 0.00951436 0.00923969 0.00896327 0.0086873 0.00841367 0.00814398 0.00787956 0.00762153 0.00737077 0.00712797 0.0068937 0.00666838 0.00645232 0.00624575 0.00604882 0.00586165 0.00568429 0.00551678 0.00535912 0.0052113 0.00507331 0.0049451 0.00482664 0.00471789 0.00461879 0.0045293 0.00444938 0.00437898 0.00431806 0.00426657 0.0042245 0.00419181 0.00416847 0.00415448 0.00414981 
0.00352767 0.00353185 0.00354437 0.00356527 0.00359456 0.00363227 0.00367845 0.00373315 0.00379643 0.00386836 0.003949 0.00403845 0.0041368 0.00424413 0.00436055 0.00448616 0.00462107 0.00476538 0.0049192 0.00508262 0.00525575 0.00543866 0.00563142 0.00583407 0.00604663 0.00626908 0.00650134 0.00674327 0.00699467 0.00725521 0.00752448 0.00780188 0.0080867 0.00837798 0.00867459 0.00897513 0.00927797 0.00958116 0.00988236 0.0101788 0.0104669 0.0107428 0.0110027 0.0112429 0.0114621 0.0116596 0.0118354 0.0119892 0.0121205 0.0122284 0.0123112 0.0123669 0.0123931 0.012388 0.0123509 0.012282 0.0121822 0.0120532 0.0118968 0.0117146 0.0115085 0.0112804 0.0110322 0.0107667 0.0104873 0.0101974 0.00990059 0.00960014 0.00929883 0.00899908 0.00870291 0.00841198 0.00812765 0.00785101 0.00758292 0.00732404 0.00707486 0.00683576 0.00660698 0.00638869 0.00618099 0.00598393 0.0057975 0.00562169 0.00545646 0.00530175 0.00515749 0.00502361 0.00490003 0.00478668 0.00468348 0.00459036 0.00450725 0.00443409 0.00437081 0.00431735 0.00427369 0.00423977 0.00421556 0.00420104 0.0041962 
0.00356385 0.00356816 0.00358109 0.00360267 0.00363291 0.00367185 0.00371956 0.00377609 0.00384152 0.00391592 0.00399939 0.00409204 0.00419397 0.0043053 0.00442617 0.0045567 0.00469704 0.00484732 0.0050077 0.00517832 0.00535932 0.00555083 0.00575297 0.00596585 0.00618954 0.00642408 0.00666946 0.00692561 0.00719239 0.00746953 0.00775667 0.00805327 0.00835863 0.00867184 0.00899175 0.00931698 0.00964587 0.00997646 0.0103064 0.0106325 0.0109507 0.0112556 0.0115421 0.0118041 0.0120414 0.0122541 0.0124436 0.0126105 0.0127549 0.0128759 0.0129712 0.0130377 0.0130716 0.01307 0.0130314 0.0129565 0.0128468 0.0127043 0.0125314 0.0123303 0.0121028 0.0118505 0.0115755 0.011281 0.0109711 0.0106503 0.0103231 0.00999326 0.00966387 0.00933752 0.00901631 0.00870192 0.00839569 0.00809867 0.00781165 0.00753524 0.00726986 0.0070158 0.00677324 0.00654227 0.00632292 0.00611516 0.00591894 0.00573418 0.00556078 0.00539863 0.00524761 0.00510762 0.00497853 0.00486023 0.00475263 0.0046556 0.00456907 0.00449293 0.00442711 0.00437154 0.00432617 0.00429092 0.00426578 0.0042507 0.00424568 
0.00360211 0.00360656 0.00361992 0.00364221 0.00367346 0.00371372 0.00376306 0.00382154 0.00388925 0.00396629 0.00405277 0.00414882 0.00425458 0.00437018 0.0044958 0.00463159 0.00477773 0.00493441 0.00510181 0.00528014 0.00546958 0.00567032 0.00588255 0.00610643 0.0063421 0.00658969 0.00684925 0.00712079 0.00740424 0.00769942 0.00800602 0.00832358 0.00865145 0.00898874 0.00933434 0.00968688 0.0100447 0.010406 0.0107686 0.0111295 0.011484 0.0118234 0.0121438 0.012429 0.0126852 0.0129121 0.0131145 0.0132949 0.0134537 0.0135903 0.0137018 0.013783 0.0138281 0.0138315 0.0137915 0.0137092 0.0135872 0.0134285 0.0132364 0.0130137 0.012762 0.0124821 0.012176 0.0118472 0.011501 0.011144 0.0107817 0.0104185 0.0100577 0.00970181 0.00935304 0.00901297 0.00868288 0.00836373 0.00805624 0.0077609 0.00747806 0.0072079 0.00695053 0.00670594 0.00647408 0.00625487 0.00604816 0.00585381 0.00567166 0.00550155 0.00534331 0.00519679 0.00506181 0.00493824 0.00482593 0.00472473 0.00463454 0.00455524 0.00448672 0.0044289 0.00438169 0.00434504 0.0043189 0.00430323 0.00429801 
0.00364225 0.00364686 0.00366067 0.00368372 0.00371604 0.00375769 0.00380874 0.00386928 0.00393941 0.00401924 0.00410891 0.00420857 0.00431837 0.0044385 0.00456915 0.00471052 0.00486282 0.00502629 0.00520116 0.00538769 0.00558611 0.00579669 0.00601968 0.00625531 0.00650381 0.00676537 0.00704014 0.00732822 0.00762963 0.00794427 0.00827193 0.00861223 0.00896458 0.00932815 0.00970186 0.0100843 0.010474 0.0108691 0.011268 0.0116693 0.0120694 0.0124478 0.0128194 0.0131246 0.0134017 0.0136385 0.0138514 0.0140449 0.0142197 0.0143754 0.0145079 0.0146098 0.0146714 0.0146819 0.0146395 0.0145476 0.0144102 0.0142318 0.0140172 0.0137702 0.0134925 0.0131812 0.0128385 0.0124688 0.0120785 0.0116784 0.0112757 0.0108749 0.0104791 0.0100909 0.00971203 0.00934412 0.00898827 0.00864531 0.00831584 0.00800023 0.00769871 0.00741137 0.0071382 0.0068791 0.00663393 0.00640251 0.00618464 0.0059801 0.00578866 0.0056101 0.0054442 0.00529074 0.00514953 0.00502036 0.00490305 0.00479745 0.00470339 0.00462073 0.00454935 0.00448914 0.00444 0.00440187 0.00437467 0.00435837 0.00435294 
0.00368409 0.00368885 0.00370314 0.00372698 0.00376043 0.00380354 0.00385639 0.00391909 0.00399176 0.00407452 0.00416755 0.004271 0.00438506 0.00450996 0.0046459 0.00479315 0.00495195 0.00512258 0.00530534 0.00550053 0.00570846 0.00592946 0.00616384 0.00641194 0.00667406 0.00695049 0.00724147 0.00754722 0.00786784 0.00820336 0.00855368 0.0089185 0.00929734 0.00968943 0.0100937 0.0105088 0.0109329 0.0113642 0.0118015 0.012247 0.0127131 0.0131158 0.013517 0.0138927 0.0142057 0.0144366 0.0146555 0.0148629 0.0150561 0.015235 0.0153949 0.0155262 0.0156145 0.0156335 0.0155859 0.0154808 0.0153236 0.0151206 0.0148791 0.0146057 0.0143033 0.013956 0.0135699 0.0131511 0.0127045 0.0122526 0.0118035 0.0113607 0.0109267 0.0105033 0.010092 0.00969419 0.00931076 0.00894238 0.0085895 0.00825234 0.007931 0.00762544 0.00733553 0.00706107 0.00680182 0.00655751 0.00632785 0.00611255 0.0059113 0.00572382 0.00554984 0.00538907 0.00524128 0.00510621 0.00498366 0.00487341 0.00477528 0.00468909 0.0046147 0.00455199 0.00450082 0.00446113 0.00443282 0.00441586 0.00441021 
0.00372742 0.00373234 0.00374712 0.0037718 0.00380641 0.00385104 0.00390578 0.00397074 0.00404605 0.00413188 0.00422841 0.00433582 0.00445434 0.00458422 0.00472572 0.00487911 0.00504472 0.00522287 0.0054139 0.00561818 0.0058361 0.00606806 0.00631445 0.00657569 0.00685219 0.00714434 0.0074525 0.00777698 0.00811805 0.00847584 0.00885039 0.00924154 0.00964891 0.0100718 0.0105093 0.0109597 0.0114209 0.0118901 0.0123638 0.0128403 0.0133299 0.0137616 0.0141675 0.0146085 0.0150153 0.0152938 0.0155212 0.0157495 0.0159797 0.0161945 0.0163821 0.0165427 0.0166703 0.0167031 0.0166418 0.0165193 0.016336 0.0161011 0.0158259 0.0155234 0.0152117 0.0148175 0.0143783 0.0139029 0.0133761 0.012863 0.0123623 0.011874 0.0113987 0.0109375 0.0104916 0.0100619 0.00964913 0.00925381 0.00887617 0.00851627 0.00817403 0.00784928 0.00754175 0.00725114 0.00697709 0.00671923 0.00647719 0.00625059 0.00603905 0.00584222 0.00565976 0.00549134 0.00533666 0.00519542 0.00506737 0.00495226 0.00484987 0.00476 0.00468247 0.00461713 0.00456385 0.00452253 0.00449307 0.00447541 0.00446953 