<?xml version="1.0"?>
<VTKFile type="StructuredGrid" version="0.1">
    <StructuredGrid WholeExtent="0 100 0 100 0 0">
        <Piece Extent="0 100 0 100 0 0">
            <Points>
                <DataArray type="Float64" NumberOfComponents="3" format="ascii">
-15 -15 0
-15 -14.7 0
-15 -14.4 0
-15 -14.1 0
-15 -13.8 0
-15 -13.5 0
-15 -13.2 0
-15 -12.9 0
-15 -12.6 0
-15 -12.3 0
-15 -12 0
-15 -11.7 0
-15 -11.4 0
-15 -11.1 0
-15 -10.8 0
-15 -10.5 0
-15 -10.2 0
-15 -9.9 0
-15 -9.6 0
-15 -9.3 0
-15 -9 0
-15 -8.7 0
-15 -8.4 0
-15 -8.1 0
-15 -7.8 0
-15 -7.5 0
-15 -7.2 0
-15 -6.9 0
-15 -6.6 0
-15 -6.3 0
-15 -6 0
-15 -5.7 0
-15 -5.4 0
-15 -5.1 0
-15 -4.8 0
-15 -4.5 0
-15 -4.2 0
-15 -3.9 0
-15 -3.6 0
-15 -3.3 0
-15 -3 0
-15 -2.7 0
-15 -2.4 0
-15 -2.1 0
-15 -1.8 0
-15 -1.5 0
-15 -1.2 0
-15 -0.9 0
-15 -0.6 0
-15 -0.3 0
-15 0 0
-15 0.3 0
-15 0.6 0
-15 0.9 0
-15 1.2 0
-15 1.5 0
-15 1.8 0
-15 2.1 0
-15 2.4 0
-15 2.7 0
-15 3 0
-15 3.3 0
-15 3.6 0
-15 3.9 0
-15 4.2 0
-15 4.5 0
-15 4.8 0
-15 5.1 0
-15 5.4 0
-15 5.7 0
-15 6 0
-15 6.3 0
-15 6.6 0
-15 6.9 0
-15 7.2 0
-15 7.5 0
-15 7.8 0
-15 8.1 0
-15 8.4 0
-15 8.7 0
-15 9 0
-15 9.3 0
-15 9.6 0
-15 9.9 0
-15 10.2 0
-15 10.5 0
-15 10.8 0
-15 11.1 0
-15 11.4 0
-15 11.7 0
-15 12 0
-15 12.3 0
-15 12.6 0
-15 12.9 0
-15 13.2 0
-15 13.5 0
-15 13.8 0
-15 14.1 0
-15 14.4 0
-15 14.7 0
-15 15 0
-14.7 -15 0
-14.7 -14.7 0
-14.7 -14.4 0
-14.7 -14.1 0
-14.7 -13.8 0
-14.7 -13.5 0
-14.7 -13.2 0
-14.7 -12.9 0
-14.7 -12.6 0
-14.7 -12.3 0
-14.7 -12 0
-14.7 -11.7 0
-14.7 -11.4 0
-14.7 -11.1 0
-14.7 -10.8 0
-14.7 -10.5 0
-14.7 -10.2 0
-14.7 -9.9 0
-14.7 -9.6 0
-14.7 -9.3 0
-14.7 -9 0
-14.7 -8.7 0
-14.7 -8.4 0
-14.7 -8.1 0
-14.7 -7.8 0
-14.7 -7.5 0
-14.7 -7.2 0
-14.7 -6.9 0
-14.7 -6.6 0
-14.7 -6.3 0
-14.7 -6 0
-14.7 -5.7 0
-14.7 -5.4 0
-14.7 -5.1 0
-14.7 -4.8 0
-14.7 -4.5 0
-14.7 -4.2 0
-14.7 -3.9 0
-14.7 -3.6 0
-14.7 -3.3 0
-14.7 -3 0
-14.7 -2.7 0
-14.7 -2.4 0
-14.7 -2.1 0
-14.7 -1.8 0
-14.7 -1.5 0
-14.7 -1.2 0
-14.7 -0.9 0
-14.7 -0.6 0
-14.7 -0.3 0
-14.7 0 0
-14.7 0.3 0
-14.7 0.6 0
-14.7 0.9 0
-14.7 1.2 0
-14.7 1.5 0
-14.7 1.8 0
-14.7 2.1 0
-14.7 2.4 0
-14.7 2.7 0
-14.7 3 0
-14.7 3.3 0
-14.7 3.6 0
-14.7 3.9 0
-14.7 4.2 0
-14.7 4.5 0
-14.7 4.8 0
-14.7 5.1 0
-14.7 5.4 0
-14.7 5.7 0
-14.7 6 0
-14.7 6.3 0
-14.7 6.6 0
-14.7 6.9 0
-14.7 7.2 0
-14.7 7.5 0
-14.7 7.8 0
-14.7 8.1 0
-14.7 8.4 0
-14.7 8.7 0
-14.7 9 0
-14.7 9.3 0
-14.7 9.6 0
-14.7 9.9 0
-14.7 10.2 0
-14.7 10.5 0
-14.7 10.8 0
-14.7 11.1 0
-14.7 11.4 0
-14.7 11.7 0
-14.7 12 0
-14.7 12.3 0
-14.7 12.6 0
-14.7 12.9 0
-14.7 13.2 0
-14.7 13.5 0
-14.7 13.8 0
-14.7 14.1 0
-14.7 14.4 0
-14.7 14.7 0
-14.7 15 0
-14.4 -15 0
-14.4 -14.7 0
-14.4 -14.4 0
-14.4 -14.1 0
-14.4 -13.8 0
-14.4 -13.5 0
-14.4 -13.2 0
-14.4 -12.9 0
-14.4 -12.6 0
-14.4 -12.3 0
-14.4 -12 0
-14.4 -11.7 0
-14.4 -11.4 0
-14.4 -11.1 0
-14.4 -10.8 0
-14.4 -10.5 0
-14.4 -10.2 0
-14.4 -9.9 0
-14.4 -9.6 0
-14.4 -9.3 0
-14.4 -9 0
-14.4 -8.7 0
-14.4 -8.4 0
-14.4 -8.1 0
-14.4 -7.8 0
-14.4 -7.5 0
-14.4 -7.2 0
-14.4 -6.9 0
-14.4 -6.6 0
-14.4 -6.3 0
-14.4 -6 0
-14.4 -5.7 0
-14.4 -5.4 0
-14.4 -5.1 0
-14.4 -4.8 0
-14.4 -4.5 0
-14.4 -4.2 0
-14.4 -3.9 0
-14.4 -3.6 0
-14.4 -3.3 0
-14.4 -3 0
-14.4 -2.7 0
-14.4 -2.4 0
-14.4 -2.1 0
-14.4 -1.8 0
-14.4 -1.5 0
-14.4 -1.2 0
-14.4 -0.9 0
-14.4 -0.6 0
-14.4 -0.3 0
-14.4 0 0
-14.4 0.3 0
-14.4 0.6 0
-14.4 0.9 0
-14.4 1.2 0
-14.4 1.5 0
-14.4 1.8 0
-14.4 2.1 0
-14.4 2.4 0
-14.4 2.7 0
-14.4 3 0
-14.4 3.3 0
-14.4 3.6 0
-14.4 3.9 0
-14.4 4.2 0
-14.4 4.5 0
-14.4 4.8 0
-14.4 5.1 0
-14.4 5.4 0
-14.4 5.7 0
-14.4 6 0
-14.4 6.3 0
-14.4 6.6 0
-14.4 6.9 0
-14.4 7.2 0
-14.4 7.5 0
-14.4 7.8 0
-14.4 8.1 0
-14.4 8.4 0
-14.4 8.7 0
-14.4 9 0
-14.4 9.3 0
-14.4 9.6 0
-14.4 9.9 0
-14.4 10.2 0
-14.4 10.5 0
-14.4 10.8 0
-14.4 11.1 0
-14.4 11.4 0
-14.4 11.7 0
-14.4 12 0
-14.4 12.3 0
-14.4 12.6 0
-14.4 12.9 0
-14.4 13.2 0
-14.4 13.5 0
-14.4 13.8 0
-14.4 14.1 0
-14.4 14.4 0
-14.4 14.7 0
-14.4 15 0
-14.1 -15 0
-14.1 -14.7 0
-14.1 -14.4 0
-14.1 -14.1 0
-14.1 -13.8 0
-14.1 -13.5 0
-14.1 -13.2 0
-14.1 -12.9 0
-14.1 -12.6 0
-14.1 -12.3 0
-14.1 -12 0
-14.1 -11.7 0
-14.1 -11.4 0
-14.1 -11.1 0
-14.1 -10.8 0
-14.1 -10.5 0
-14.1 -10.2 0
-14.1 -9.9 0
-14.1 -9.6 0
-14.1 -9.3 0
-14.1 -9 0
-14.1 -8.7 0
-14.1 -8.4 0
-14.1 -8.1 0
-14.1 -7.8 0
-14.1 -7.5 0
-14.1 -7.2 0
-14.1 -6.9 0
-14.1 -6.6 0
-14.1 -6.3 0
-14.1 -6 0
-14.1 -5.7 0
-14.1 -5.4 0
-14.1 -5.1 0
-14.1 -4.8 0
-14.1 -4.5 0
-14.1 -4.2 0
-14.1 -3.9 0
-14.1 -3.6 0
-14.1 -3.3 0
-14.1 -3 0
-14.1 -2.7 0
-14.1 -2.4 0
-14.1 -2.1 0
-14.1 -1.8 0
-14.1 -1.5 0
-14.1 -1.2 0
-14.1 -0.9 0
-14.1 -0.6 0
-14.1 -0.3 0
-14.1 0 0
-14.1 0.3 0
-14.1 0.6 0
-14.1 0.9 0
-14.1 1.2 0
-14.1 1.5 0
-14.1 1.8 0
-14.1 2.1 0
-14.1 2.4 0
-14.1 2.7 0
-14.1 3 0
-14.1 3.3 0
-14.1 3.6 0
-14.1 3.9 0
-14.1 4.2 0
-14.1 4.5 0
-14.1 4.8 0
-14.1 5.1 0
-14.1 5.4 0
-14.1 5.7 0
-14.1 6 0
-14.1 6.3 0
-14.1 6.6 0
-14.1 6.9 0
-14.1 7.2 0
-14.1 7.5 0
-14.1 7.8 0
-14.1 8.1 0
-14.1 8.4 0
-14.1 8.7 0
-14.1 9 0
-14.1 9.3 0
-14.1 9.6 0
-14.1 9.9 0
-14.1 10.2 0
-14.1 10.5 0
-14.1 10.8 0
-14.1 11.1 0
-14.1 11.4 0
-14.1 11.7 0
-14.1 12 0
-14.1 12.3 0
-14.1 12.6 0
-14.1 12.9 0
-14.1 13.2 0
-14.1 13.5 0
-14.1 13.8 0
-14.1 14.1 0
-14.1 14.4 0
-14.1 14.7 0
-14.1 15 0
-13.8 -15 0
-13.8 -14.7 0
-13.8 -14.4 0
-13.8 -14.1 0
-13.8 -13.8 0
-13.8 -13.5 0
-13.8 -13.2 0
-13.8 -12.9 0
-13.8 -12.6 0
-13.8 -12.3 0
-13.8 -12 0
-13.8 -11.7 0
-13.8 -11.4 0
-13.8 -11.1 0
-13.8 -10.8 0
-13.8 -10.5 0
-13.8 -10.2 0
-13.8 -9.9 0
-13.8 -9.6 0
-13.8 -9.3 0
-13.8 -9 0
-13.8 -8.7 0
-13.8 -8.4 0
-13.8 -8.1 0
-13.8 -7.8 0
-13.8 -7.5 0
-13.8 -7.2 0
-13.8 -6.9 0
-13.8 -6.6 0
-13.8 -6.3 0
-13.8 -6 0
-13.8 -5.7 0
-13.8 -5.4 0
-13.8 -5.1 0
-13.8 -4.8 0
-13.8 -4.5 0
-13.8 -4.2 0
-13.8 -3.9 0
-13.8 -3.6 0
-13.8 -3.3 0
-13.8 -3 0
-13.8 -2.7 0
-13.8 -2.4 0
-13.8 -2.1 0
-13.8 -1.8 0
-13.8 -1.5 0
-13.8 -1.2 0
-13.8 -0.9 0
-13.8 -0.6 0
-13.8 -0.3 0
-13.8 0 0
-13.8 0.3 0
-13.8 0.6 0
-13.8 0.9 0
-13.8 1.2 0
-13.8 1.5 0
-13.8 1.8 0
-13.8 2.1 0
-13.8 2.4 0
-13.8 2.7 0
-13.8 3 0
-13.8 3.3 0
-13.8 3.6 0
-13.8 3.9 0
-13.8 4.2 0
-13.8 4.5 0
-13.8 4.8 0
-13.8 5.1 0
-13.8 5.4 0
-13.8 5.7 0
-13.8 6 0
-13.8 6.3 0
-13.8 6.6 0
-13.8 6.9 0
-13.8 7.2 0
-13.8 7.5 0
-13.8 7.8 0
-13.8 8.1 0
-13.8 8.4 0
-13.8 8.7 0
-13.8 9 0
-13.8 9.3 0
-13.8 9.6 0
-13.8 9.9 0
-13.8 10.2 0
-13.8 10.5 0
-13.8 10.8 0
-13.8 11.1 0
-13.8 11.4 0
-13.8 11.7 0
-13.8 12 0
-13.8 12.3 0
-13.8 12.6 0
-13.8 12.9 0
-13.8 13.2 0
-13.8 13.5 0
-13.8 13.8 0
-13.8 14.1 0
-13.8 14.4 0
-13.8 14.7 0
-13.8 15 0
-13.5 -15 0
-13.5 -14.7 0
-13.5 -14.4 0
-13.5 -14.1 0
-13.5 -13.8 0
-13.5 -13.5 0
-13.5 -13.2 0
-13.5 -12.9 0
-13.5 -12.6 0
-13.5 -12.3 0
-13.5 -12 0
-13.5 -11.7 0
-13.5 -11.4 0
-13.5 -11.1 0
-13.5 -10.8 0
-13.5 -10.5 0
-13.5 -10.2 0
-13.5 -9.9 0
-13.5 -9.6 0
-13.5 -9.3 0
-13.5 -9 0
-13.5 -8.7 0
-13.5 -8.4 0
-13.5 -8.1 0
-13.5 -7.8 0
-13.5 -7.5 0
-13.5 -7.2 0
-13.5 -6.9 0
-13.5 -6.6 0
-13.5 -6.3 0
-13.5 -6 0
-13.5 -5.7 0
-13.5 -5.4 0
-13.5 -5.1 0
-13.5 -4.8 0
-13.5 -4.5 0
-13.5 -4.2 0
-13.5 -3.9 0
-13.5 -3.6 0
-13.5 -3.3 0
-13.5 -3 0
-13.5 -2.7 0
-13.5 -2.4 0
-13.5 -2.1 0
-13.5 -1.8 0
-13.5 -1.5 0
-13.5 -1.2 0
-13.5 -0.9 0
-13.5 -0.6 0
-13.5 -0.3 0
-13.5 0 0
-13.5 0.3 0
-13.5 0.6 0
-13.5 0.9 0
-13.5 1.2 0
-13.5 1.5 0
-13.5 1.8 0
-13.5 2.1 0
-13.5 2.4 0
-13.5 2.7 0
-13.5 3 0
-13.5 3.3 0
-13.5 3.6 0
-13.5 3.9 0
-13.5 4.2 0
-13.5 4.5 0
-13.5 4.8 0
-13.5 5.1 0
-13.5 5.4 0
-13.5 5.7 0
-13.5 6 0
-13.5 6.3 0
-13.5 6.6 0
-13.5 6.9 0
-13.5 7.2 0
-13.5 7.5 0
-13.5 7.8 0
-13.5 8.1 0
-13.5 8.4 0
-13.5 8.7 0
-13.5 9 0
-13.5 9.3 0
-13.5 9.6 0
-13.5 9.9 0
-13.5 10.2 0
-13.5 10.5 0
-13.5 10.8 0
-13.5 11.1 0
-13.5 11.4 0
-13.5 11.7 0
-13.5 12 0
-13.5 12.3 0
-13.5 12.6 0
-13.5 12.9 0
-13.5 13.2 0
-13.5 13.5 0
-13.5 13.8 0
-13.5 14.1 0
-13.5 14.4 0
-13.5 14.7 0
-13.5 15 0
-13.2 -15 0
-13.2 -14.7 0
-13.2 -14.4 0
-13.2 -14.1 0
-13.2 -13.8 0
-13.2 -13.5 0
-13.2 -13.2 0
-13.2 -12.9 0
-13.2 -12.6 0
-13.2 -12.3 0
-13.2 -12 0
-13.2 -11.7 0
-13.2 -11.4 0
-13.2 -11.1 0
-13.2 -10.8 0
-13.2 -10.5 0
-13.2 -10.2 0
-13.2 -9.9 0
-13.2 -9.6 0
-13.2 -9.3 0
-13.2 -9 0
-13.2 -8.7 0
-13.2 -8.4 0
-13.2 -8.1 0
-13.2 -7.8 0
-13.2 -7.5 0
-13.2 -7.2 0
-13.2 -6.9 0
-13.2 -6.6 0
-13.2 -6.3 0
-13.2 -6 0
-13.2 -5.7 0
-13.2 -5.4 0
-13.2 -5.1 0
-13.2 -4.8 0
-13.2 -4.5 0
-13.2 -4.2 0
-13.2 -3.9 0
-13.2 -3.6 0
-13.2 -3.3 0
-13.2 -3 0
-13.2 -2.7 0
-13.2 -2.4 0
-13.2 -2.1 0
-13.2 -1.8 0
-13.2 -1.5 0
-13.2 -1.2 0
-13.2 -0.9 0
-13.2 -0.6 0
-13.2 -0.3 0
-13.2 0 0
-13.2 0.3 0
-13.2 0.6 0
-13.2 0.9 0
-13.2 1.2 0
-13.2 1.5 0
-13.2 1.8 0
-13.2 2.1 0
-13.2 2.4 0
-13.2 2.7 0
-13.2 3 0
-13.2 3.3 0
-13.2 3.6 0
-13.2 3.9 0
-13.2 4.2 0
-13.2 4.5 0
-13.2 4.8 0
-13.2 5.1 0
-13.2 5.4 0
-13.2 5.7 0
-13.2 6 0
-13.2 6.3 0
-13.2 6.6 0
-13.2 6.9 0
-13.2 7.2 0
-13.2 7.5 0
-13.2 7.8 0
-13.2 8.1 0
-13.2 8.4 0
-13.2 8.7 0
-13.2 9 0
-13.2 9.3 0
-13.2 9.6 0
-13.2 9.9 0
-13.2 10.2 0
-13.2 10.5 0
-13.2 10.8 0
-13.2 11.1 0
-13.2 11.4 0
-13.2 11.7 0
-13.2 12 0
-13.2 12.3 0
-13.2 12.6 0
-13.2 12.9 0
-13.2 13.2 0
-13.2 13.5 0
-13.2 13.8 0
-13.2 14.1 0
-13.2 14.4 0
-13.2 14.7 0
-13.2 15 0
-12.9 -15 0
-12.9 -14.7 0
-12.9 -14.4 0
-12.9 -14.1 0
-12.9 -13.8 0
-12.9 -13.5 0
-12.9 -13.2 0
-12.9 -12.9 0
-12.9 -12.6 0
-12.9 -12.3 0
-12.9 -12 0
-12.9 -11.7 0
-12.9 -11.4 0
-12.9 -11.1 0
-12.9 -10.8 0
-12.9 -10.5 0
-12.9 -10.2 0
-12.9 -9.9 0
-12.9 -9.6 0
-12.9 -9.3 0
-12.9 -9 0
-12.9 -8.7 0
-12.9 -8.4 0
-12.9 -8.1 0
-12.9 -7.8 0
-12.9 -7.5 0
-12.9 -7.2 0
-12.9 -6.9 0
-12.9 -6.6 0
-12.9 -6.3 0
-12.9 -6 0
-12.9 -5.7 0
-12.9 -5.4 0
-12.9 -5.1 0
-12.9 -4.8 0
-12.9 -4.5 0
-12.9 -4.2 0
-12.9 -3.9 0
-12.9 -3.6 0
-12.9 -3.3 0
-12.9 -3 0
-12.9 -2.7 0
-12.9 -2.4 0
-12.9 -2.1 0
-12.9 -1.8 0
-12.9 -1.5 0
-12.9 -1.2 0
-12.9 -0.9 0
-12.9 -0.6 0
-12.9 -0.3 0
-12.9 0 0
-12.9 0.3 0
-12.9 0.6 0
-12.9 0.9 0
-12.9 1.2 0
-12.9 1.5 0
-12.9 1.8 0
-12.9 2.1 0
-12.9 2.4 0
-12.9 2.7 0
-12.9 3 0
-12.9 3.3 0
-12.9 3.6 0
-12.9 3.9 0
-12.9 4.2 0
-12.9 4.5 0
-12.9 4.8 0
-12.9 5.1 0
-12.9 5.4 0
-12.9 5.7 0
-12.9 6 0
-12.9 6.3 0
-12.9 6.6 0
-12.9 6.9 0
-12.9 7.2 0
-12.9 7.5 0
-12.9 7.8 0
-12.9 8.1 0
-12.9 8.4 0
-12.9 8.7 0
-12.9 9 0
[...]
            <PointData>
                <DataArray type="Float64" Name="c1" format="ascii">
0.00208975 0.0020921 0.00209916 0.00211093 0.00212738 0.00214851 0.0021743 0.00220471 0.00223973 0.0022793 0.00232339 0.00237195 0.00242491 0.00248219 0.00254372 0.0026094 0.00267913 0.00275277 0.0028302 0.00291126 0.00299576 0.00308354 0.00317436 0.00326799 0.00336419 0.00346267 0.00356312 0.00366523 0.00376863 0.00387296 0.00397782 0.00408279 0.00418742 0.00429125 0.00439382 0.00449462 0.00459315 0.0046889 0.00478136 0.00487001 0.00495435 0.00503387 0.0051081 0.00517658 0.00523887 0.00529457 0.00534333 0.00538482 0.00541876 0.00544494 0.00546318 0.00547338 0.00547547 0.00546947 0.00545543 0.00543349 0.00540381 0.00536664 0.00532225 0.00527098 0.0052132 0.00514932 0.00507979 0.00500508 0.00492568 0.0048421 0.00475485 0.00466446 0.00457146 0.00447636 0.00437967 0.0042819 0.00418352 0.00408502 0.00398682 0.00388937 0.00379306 0.00369828 0.00360538 0.00351469 0.00342652 0.00334117 0.00325888 0.00317991 0.00310446 0.00303275 0.00296494 0.00290121 0.00284169 0.00278651 0.00273579 0.00268962 0.0026481 0.0026113 0.00257928 0.0025521 0.00252981 0.00251243 0.0025 0.00249253 0.00249004 
0.00209141 0.00209377 0.00210085 0.00211264 0.00212913 0.00215031 0.00217616 0.00220665 0.00224175 0.00228142 0.00232563 0.00237431 0.0024274 0.00248484 0.00254653 0.0026124 0.00268232 0.00275617 0.00283383 0.00291513 0.0029999 0.00308794 0.00317906 0.00327301 0.00336953 0.00346835 0.00356917 0.00367165 0.00377544 0.00388018 0.00398545 0.00409085 0.00419591 0.0043002 0.00440321 0.00450446 0.00460344 0.00469964 0.00479254 0.00488163 0.00496638 0.0050463 0.00512091 0.00518975 0.00525236 0.00530836 0.00535738 0.00539909 0.00543321 0.00545953 0.00547787 0.00548811 0.00549021 0.00548416 0.00547003 0.00544795 0.00541809 0.0053807 0.00533605 0.00528449 0.00522639 0.00516216 0.00509225 0.00501713 0.00493732 0.0048533 0.00476561 0.00467478 0.00458132 0.00448577 0.00438863 0.00429041 0.0041916 0.00409267 0.00399406 0.00389621 0.00379952 0.00370436 0.0036111 0.00352008 0.00343159 0.00334593 0.00326336 0.00318412 0.00310843 0.00303648 0.00296846 0.00290453 0.00284482 0.00278948 0.00273861 0.00269231 0.00265067 0.00261376 0.00258166 0.0025544 0.00253204 0.00251462 0.00250215 0.00249467 0.00249217 
0.00209639 0.00209876 0.00210589 0.00211777 0.00213438 0.00215571 0.00218174 0.00221245 0.00224781 0.00228778 0.00233232 0.00238137 0.00243488 0.00249277 0.00255496 0.00262137 0.00269188 0.00276637 0.00284471 0.00292674 0.00301229 0.00310117 0.00319316 0.00328805 0.00338555 0.00348541 0.00358731 0.00369092 0.00379589 0.00390184 0.00400837 0.00411505 0.00422143 0.00432705 0.00443142 0.00453403 0.00463437 0.00473192 0.00482615 0.00491653 0.00500255 0.00508368 0.00515943 0.00522933 0.00529293 0.00534982 0.00539962 0.00544199 0.00547666 0.00550339 0.00552201 0.0055324 0.0055345 0.00552832 0.00551392 0.00549143 0.00546104 0.00542299 0.00537756 0.00532512 0.00526603 0.00520073 0.00512968 0.00505336 0.00497228 0.00488696 0.00479794 0.00470575 0.00461094 0.00451402 0.00441554 0.00431599 0.00421587 0.00411565 0.0040158 0.00391674 0.00381889 0.00372262 0.00362829 0.00353625 0.00344681 0.00336024 0.00327681 0.00319677 0.00312032 0.00304767 0.00297901 0.00291448 0.00285423 0.00279838 0.00274706 0.00270036 0.00265836 0.00262114 0.00258877 0.00256128 0.00253874 0.00252117 0.00250861 0.00250106 0.00249854 
0.00210467 0.00210707 0.00211429 0.0021263 0.0021431 0.00216469 0.00219103 0.00222211 0.0022579 0.00229836 0.00234345 0.00239313 0.00244732 0.00250597 0.002569 0.00263631 0.0027078 0.00278335 0.00286283 0.00294608 0.00303293 0.0031232 0.00321668 0.00331312 0.00341227 0.00351385 0.00361756 0.00372306 0.00382999 0.00393798 0.00404661 0.00415544 0.00426403 0.00437189 0.00447853 0.00458342 0.00468605 0.00478586 0.00488233 0.00497489 0.00506302 0.00514618 0.00522386 0.00529556 0.00536081 0.0054192 0.00547031 0.00551381 0.0055494 0.00557683 0.00559593 0.00560656 0.00560867 0.00560226 0.00558741 0.00556424 0.00553294 0.00549377 0.00544704 0.00539311 0.00533237 0.00526527 0.0051923 0.00511395 0.00503075 0.00494324 0.00485198 0.00475753 0.00466043 0.00456123 0.00446048 0.00435869 0.00425637 0.00415401 0.00405208 0.003951 0.0038512 0.00375306 0.00365696 0.00356322 0.00347217 0.00338408 0.00329922 0.00321783 0.00314013 0.00306632 0.00299657 0.00293104 0.00286988 0.00281321 0.00276114 0.00271376 0.00267117 0.00263342 0.0026006 0.00257274 0.00254989 0.00253208 0.00251934 0.00251169 0.00250914 
0.00211623 0.00211867 0.002126 0.00213821 0.00215529 0.00217722 0.002204 0.0022356 0.00227199 0.00231314 0.00235901 0.00240955 0.00246471 0.00252443 0.00258862 0.0026572 0.00273006 0.0028071 0.00288817 0.00297314 0.00306183 0.00315405 0.00324959 0.00334822 0.00344969 0.0035537 0.00365996 0.00376812 0.00387782 0.00398867 0.00410026 0.00421214 0.00432384 0.00443486 0.00454471 0.00465283 0.00475868 0.0048617 0.00496133 0.00505699 0.00514812 0.00523416 0.00531456 0.00538882 0.00545642 0.00551693 0.00556992 0.00561502 0.00565191 0.00568034 0.00570012 0.0057111 0.00571323 0.0057065 0.00569099 0.00566685 0.00563427 0.00559352 0.00554493 0.00548888 0.0054258 0.00535616 0.00528045 0.00519922 0.00511301 0.00502241 0.00492798 0.00483031 0.00472998 0.00462755 0.0045236 0.00441865 0.00431323 0.00420784 0.00410296 0.00399904 0.0038965 0.00379574 0.00369712 0.003601 0.00350768 0.00341745 0.00333058 0.00324731 0.00316785 0.0030924 0.00302113 0.00295421 0.00289177 0.00283393 0.0027808 0.00273248 0.00268905 0.00265058 0.00261712 0.00258873 0.00256545 0.00254731 0.00253433 0.00252654 0.00252394 
0.00213103 0.00213352 0.002141 0.00215346 0.00217088 0.00219327 0.00222061 0.00225287 0.00229003 0.00233207 0.00237894 0.00243061 0.00248701 0.00254809 0.00261378 0.00268399 0.00275863 0.00283758 0.00292072 0.0030079 0.00309895 0.00319369 0.00329191 0.00339337 0.00349782 0.00360498 0.00371454 0.00382614 0.00393943 0.004054 0.00416943 0.00428526 0.004401 0.00451615 0.00463016 0.00474249 0.00485255 0.00495976 0.00506351 0.00516322 0.00525827 0.00534807 0.00543205 0.00550965 0.00558034 0.00564363 0.00569907 0.00574627 0.00578489 0.00581463 0.0058353 0.00584674 0.00584889 0.00584175 0.00582539 0.00579997 0.0057657 0.00572288 0.00567186 0.00561304 0.00554689 0.0054739 0.00539462 0.00530962 0.00521949 0.00512483 0.00502626 0.0049244 0.00481985 0.00471322 0.00460509 0.00449603 0.00438658 0.00427725 0.00416855 0.00406094 0.00395485 0.00385068 0.00374882 0.0036496 0.00355335 0.00346036 0.00337089 0.00328518 0.00320344 0.00312588 0.00305266 0.00298394 0.00291985 0.00286051 0.00280602 0.00275649 0.00271198 0.00267256 0.00263829 0.00260922 0.00258538 0.00256681 0.00255353 0.00254556 0.0025429 
0.00214902 0.00215158 0.00215924 0.002172 0.00218985 0.0022128 0.00224081 0.00227389 0.002312 0.00235511 0.00240321 0.00245624 0.00251417 0.00257693 0.00264445 0.00271666 0.00279347 0.00287477 0.00296044 0.00305033 0.00314428 0.00324211 0.00334362 0.00344856 0.0035567 0.00366773 0.00378135 0.0038972 0.00401492 0.00413408 0.00425426 0.00437498 0.00449573 0.00461598 0.00473517 0.00485272 0.00496801 0.00508042 0.00518933 0.00529407 0.00539402 0.00548853 0.00557697 0.00565876 0.00573331 0.00580009 0.00585861 0.00590845 0.00594922 0.00598062 0.00600241 0.00601443 0.00601661 0.00600895 0.00599152 0.0059645 0.00592813 0.00588272 0.00582864 0.00576636 0.00569636 0.0056192 0.00553545 0.00544574 0.0053507 0.00525099 0.00514727 0.00504018 0.00493039 0.00481853 0.00470522 0.00459105 0.0044766 0.0043624 0.00424897 0.0041368 0.00402631 0.00391795 0.00381207 0.00370905 0.00360919 0.0035128 0.00342013 0.00333142 0.00324689 0.00316674 0.00309112 0.00302018 0.00295407 0.00289289 0.00283674 0.00278572 0.00273989 0.00269932 0.00266406 0.00263415 0.00260964 0.00259054 0.00257689 0.00256869 0.00256595 
0.00217016 0.00217278 0.00218065 0.00219378 0.00221214 0.00223573 0.00226456 0.00229859 0.00233781 0.00238221 0.00243175 0.00248641 0.00254613 0.00261087 0.00268057 0.00275515 0.00283453 0.00291862 0.00300728 0.00310039 0.00319779 0.00329929 0.00340471 0.00351381 0.00362632 0.00374197 0.00386044 0.00398137 0.00410438 0.00422904 0.00435491 0.00448149 0.00460825 0.00473464 0.00486006 0.0049839 0.0051055 0.0052242 0.00533933 0.00545017 0.00555605 0.00565626 0.00575014 0.00583701 0.00591625 0.00598729 0.00604957 0.00610262 0.00614602 0.00617943 0.0062026 0.00621534 0.00621756 0.00620927 0.00619055 0.00616159 0.00612265 0.00607407 0.00601629 0.00594979 0.00587512 0.00579288 0.00570371 0.00560829 0.00550731 0.00540148 0.00529151 0.00517812 0.005062 0.00494383 0.00482428 0.00470397 0.00458351 0.00446346 0.00434437 0.00422672 0.00411099 0.00399759 0.00388693 0.00377936 0.0036752 0.00357475 0.00347827 0.00338601 0.00329816 0.00321492 0.00313645 0.00306289 0.00299438 0.00293102 0.0028729 0.00282012 0.00277272 0.00273078 0.00269435 0.00266346 0.00263814 0.00261842 0.00260433 0.00259586 0.00259304 
0.00219436 0.00219706 0.00220519 0.00221872 0.00223767 0.00226202 0.00229176 0.0023269 0.00236742 0.00241329 0.0024645 0.00252102 0.00258282 0.00264985 0.00272206 0.00279939 0.00288175 0.00296905 0.00306119 0.00315803 0.00325943 0.00336521 0.00347517 0.00358909 0.00370671 0.00382774 0.00395187 0.00407872 0.00420792 0.00433902 0.00447156 0.00460502 0.00473884 0.00487245 0.00500522 0.00513647 0.00526553 0.00539167 0.00551416 0.00563225 0.00574517 0.00585217 0.0059525 0.00604544 0.00613029 0.0062064 0.00627317 0.00633007 0.00637663 0.00641246 0.00643728 0.00645088 0.00645316 0.00644412 0.00642386 0.00639258 0.00635057 0.00629823 0.00623601 0.00616448 0.00608424 0.00599595 0.00590032 0.00579811 0.00569007 0.00557698 0.00545962 0.00533876 0.00521515 0.00508954 0.00496263 0.00483509 0.00470756 0.00458064 0.00445489 0.00433084 0.00420895 0.00408968 0.00397343 0.00386055 0.00375138 0.00364621 0.0035453 0.00344889 0.00335719 0.00327037 0.00318859 0.003112 0.00304071 0.00297482 0.00291443 0.0028596 0.0028104 0.00276688 0.00272909 0.00269705 0.00267081 0.00265038 0.00263577 0.002627 0.00262408 
0.00222155 0.00222435 0.00223275 0.00224675 0.00226636 0.00229156 0.00232236 0.00235875 0.00240072 0.00244827 0.00250137 0.00256001 0.00262417 0.0026938 0.00276886 0.0028493 0.00293504 0.00302601 0.00312211 0.0032232 0.00332916 0.00343981 0.00355497 0.0036744 0.00379786 0.00392507 0.00405568 0.00418935 0.00432566 0.00446418 0.00460441 0.00474581 0.00488781 0.00502978 0.00517106 0.00531094 0.00544868 0.00558349 0.00571459 0.00584114 0.00596231 0.00607727 0.00618519 0.00628526 0.00637671 0.00645881 0.00653088 0.00659233 0.00664262 0.00668132 0.0067081 0.00672273 0.00672508 0.00671517 0.00669309 0.00665908 0.00661346 0.00655667 0.00648924 0.00641178 0.00632498 0.00622958 0.00612638 0.00601619 0.00589988 0.00577829 0.00565229 0.00552272 0.0053904 0.00525613 0.00512066 0.00498473 0.00484902 0.00471415 0.00458072 0.00444928 0.00432031 0.00419429 0.0040716 0.00395264 0.00383772 0.00372715 0.00362117 0.00352003 0.00342392 0.00333302 0.00324748 0.00316742 0.00309297 0.00302421 0.00296122 0.00290407 0.00285282 0.00280751 0.00276817 0.00273485 0.00270755 0.0026863 0.00267112 0.002662 0.00265896 
0.00225164 0.00225454 0.00226326 0.00227778 0.00229812 0.00232427 0.00235624 0.00239403 0.00243763 0.00248704 0.00254226 0.00260327 0.00267006 0.0027426 0.00282086 0.00290478 0.00299433 0.00308941 0.00318995 0.00329582 0.00340691 0.00352305 0.00364406 0.00376972 0.00389978 0.00403396 0.00417193 0.00431332 0.00445772 0.00460467 0.00475367 0.00490414 0.00505548 0.00520703 0.00535808 0.00550787 0.00565559 0.00580041 0.00594144 0.00607779 0.00620853 0.00633273 0.00644948 0.00655787 0.00665702 0.00674612 0.0068244 0.00689117 0.00694583 0.0069879 0.00701699 0.00703283 0.00703529 0.00702435 0.00700016 0.00696296 0.00691312 0.00685114 0.00677762 0.00669325 0.0065988 0.00649513 0.00638311 0.00626367 0.00613776 0.00600634 0.00587035 0.00573071 0.00558835 0.00544411 0.00529883 0.00515328 0.00500819 0.00486424 0.00472205 0.00458218 0.00444516 0.00431146 0.00418149 0.00405562 0.0039342 0.00381752 0.00370583 0.00359935 0.00349828 0.00340278 0.003313 0.00322906 0.00315105 0.00307907 0.00301317 0.00295343 0.00289988 0.00285256 0.0028115 0.00277673 0.00274826 0.0027261 0.00271027 0.00270077 0.0026976 
0.00228452 0.00228754 0.0022966 0.00231171 0.00233285 0.00236006 0.00239332 0.00243264 0.00247804 0.00252952 0.00258707 0.0026507 0.0027204 0.00279615 0.00287794 0.00296574 0.00305949 0.00315914 0.00326461 0.0033758 0.00349259 0.00361485 0.00374239 0.003875 0.00401244 0.00415443 0.00430065 0.00445071 0.00460421 0.00476066 0.00491954 0.00508026 0.00524219 0.00540461 0.00556677 0.00572784 0.00588698 0.00604324 0.00619567 0.00634327 0.00648503 0.0066199 0.00674684 0.00686485 0.00697294 0.00707016 0.00715565 0.00722862 0.00728839 0.00733439 0.00736617 0.00738344 0.00738603 0.00737393 0.00734728 0.00730637 0.00725164 0.00718363 0.00710305 0.00701067 0.00690738 0.00679412 0.00667192 0.00654181 0.00640485 0.00626212 0.00611466 0.00596351 0.00580966 0.00565406 0.00549759 0.00534111 0.00518539 0.00503115 0.00487905 0.00472968 0.00458358 0.00444124 0.00430309 0.00416949 0.00404079 0.00391727 0.00379919 0.00368676 0.00358016 0.00347955 0.00338506 0.00329679 0.00321485 0.00313928 0.00307017 0.00300755 0.00295145 0.00290191 0.00285895 0.00282257 0.0027928 0.00276964 0.00275309 0.00274316 0.00273985 
0.0023201 0.00232324 0.00233268 0.00234841 0.00237044 0.00239879 0.00243346 0.00247447 0.00252183 0.00257556 0.00263566 0.00270216 0.00277505 0.00285433 0.00294 0.00303203 0.0031304 0.00323507 0.00334597 0.00346301 0.00358611 0.00371511 0.00384986 0.00399017 0.0041358 0.00428646 0.00444184 0.00460157 0.00476521 0.00493228 0.00510224 0.00527447 0.00544829 0.00562295 0.00579766 0.00597152 0.00614359 0.00631287 0.00647829 0.00663876 0.00679313 0.00694024 0.00707892 0.00720802 0.00732641 0.00743303 0.00752686 0.00760702 0.00767272 0.00772328 0.00775821 0.00777714 0.00777989 0.00776645 0.00773698 0.00769179 0.0076314 0.00755643 0.00746769 0.00736606 0.00725257 0.0071283 0.00699439 0.00685203 0.00670242 0.00654676 0.00638623 0.00622196 0.00605506 0.00588657 0.00571745 0.00554863 0.00538093 0.00521513 0.00505191 0.0048919 0.00473566 0.00458369 0.00443641 0.00429421 0.00415743 0.00402633 0.00390118 0.00378216 0.00366945 0.0035632 0.00346352 0.00337049 0.00328421 0.00320472 0.00313207 0.00306628 0.0030074 0.00295542 0.00291037 0.00287224 0.00284105 0.00281679 0.00279946 0.00278906 0.00278559 
0.00235823 0.00236151 0.00237135 0.00238776 0.00241075 0.00244034 0.00247654 0.00251937 0.00256886 0.00262503 0.00268791 0.00275751 0.00283386 0.00291698 0.00300686 0.00310351 0.00320692 0.00331706 0.00343389 0.00355733 0.00368732 0.00382372 0.00396639 0.00411515 0.00426978 0.00443001 0.00459551 0.00476593 0.00494081 0.00511968 0.00530195 0.00548701 0.00567413 0.00586252 0.00605131 0.00623956 0.00642624 0.00661025 0.00679042 0.00696553 0.00713429 0.00729541 0.00744754 0.00758938 0.00771964 0.00783709 0.00794057 0.00802903 0.00810158 0.00815744 0.00819601 0.00821689 0.00821985 0.00820488 0.00817214 0.00812203 0.00805511 0.00797213 0.00787398 0.00776173 0.00763651 0.00749959 0.00735227 0.00719591 0.00703186 0.00686148 0.00668609 0.00650696 0.00632531 0.00614228 0.00595894 0.00577626 0.00559515 0.00541642 0.0052408 0.00506895 0.00490145 0.00473879 0.00458143 0.00442973 0.00428403 0.0041446 0.00401167 0.00388542 0.00376602 0.00365359 0.00354823 0.00345001 0.00335899 0.00327521 0.0031987 0.00312948 0.00306756 0.00301293 0.00296561 0.00292558 0.00289284 0.00286738 0.0028492 0.0028383 0.00283466 
0.00239879 0.00240221 0.00241249 0.00242963 0.00245365 0.00248457 0.00252241 0.0025672 0.00261898 0.00267778 0.00274364 0.0028166 0.00289668 0.00298393 0.00307837 0.00318002 0.00328888 0.00340494 0.0035282 0.00365859 0.00379607 0.00394052 0.00409183 0.00424982 0.0044143 0.004585 0.00476161 0.00494377 0.00513105 0.00532294 0.00551885 0.00571814 0.00592004 0.00612373 0.00632828 0.00653266 0.00673577 0.0069364 0.00713325 0.00732497 0.00751013 0.00768723 0.00785476 0.00801123 0.00815512 0.00828504 0.00839963 0.00849768 0.00857815 0.00864013 0.00868293 0.00870607 0.00870928 0.00869255 0.00865608 0.00860029 0.00852586 0.00843365 0.0083247 0.00820023 0.00806157 0.00791016 0.00774751 0.00757518 0.0073947 0.00720761 0.0070154 0.00681949 0.00662122 0.00642186 0.00622256 0.0060244 0.00582834 0.00563524 0.00544588 0.00526092 0.00508098 0.00490655 0.00473809 0.00457597 0.0044205 0.00427194 0.00413051 0.00399638 0.00386969 0.00375054 0.00363901 0.00353514 0.00343899 0.00335057 0.0032699 0.00319696 0.00313175 0.00307427 0.00302449 0.00298241 0.002948 0.00292126 0.00290216 0.00289071 0.00288689 
0.00244162 0.0024452 0.00245595 0.00247387 0.00249898 0.00253132 0.00257091 0.0026178 0.00267203 0.00273364 0.00280269 0.00287924 0.00296333 0.00305501 0.00315434 0.00326135 0.00337607 0.00349852 0.00362871 0.0037666 0.00391217 0.00406534 0.004226 0.00439402 0.0045692 0.00475131 0.00494006 0.00513507 0.00533593 0.00554212 0.00575306 0.00596805 0.00618633 0.00640701 0.0066291 0.0068515 0.00707302 0.00729234 0.00750803 0.00771858 0.00792236 0.0081177 0.00830286 0.00847609 0.00863567 0.00877993 0.00890732 0.00901643 0.00910603 0.00917507 0.00922276 0.00924852 0.00925204 0.0092333 0.00919252 0.00913021 0.00904714 0.00894432 0.00882295 0.00868445 0.00853038 0.0083624 0.00818226 0.00799173 0.00779258 0.00758656 0.00737535 0.00716053 0.00694361 0.00672596 0.00650886 0.00629347 0.00608081 0.0058718 0.00566725 0.00546786 0.00527424 0.00508691 0.0049063 0.00473279 0.00456667 0.00440819 0.00425753 0.00411486 0.00398027 0.00385385 0.00373565 0.00362571 0.00352403 0.00343061 0.00334545 0.00326851 0.00319978 0.00313923 0.00308683 0.00304254 0.00300635 0.00297822 0.00295815 0.00294611 0.0029421 
0.00248657 0.00249032 0.00250156 0.0025203 0.00254658 0.00258043 0.00262188 0.002671 0.00272782 0.00279243 0.00286488 0.00294524 0.0030336 0.00313001 0.00323456 0.0033473 0.00346829 0.00359757 0.00373518 0.00388113 0.0040354 0.00419795 0.0043687 0.00454755 0.00473432 0.0049288 0.00513072 0.00533972 0.0055554 0.00577724 0.00600465 0.00623692 0.00647325 0.00671271 0.00695427 0.00719674 0.00743884 0.00767913 0.00791605 0.00814791 0.00837288 0.00858903 0.00879438 0.00898686 0.00916448 0.00932526 0.0094674 0.00958925 0.00968937 0.00976655 0.00981986 0.00984863 0.00985252 0.00983146 0.00978573 0.00971592 0.00962291 0.00950787 0.00937223 0.00921763 0.00904589 0.00885896 0.00865885 0.00844761 0.00822728 0.00799985 0.00776721 0.00753114 0.00729331 0.00705525 0.00681834 0.00658382 0.0063528 0.00612624 0.00590498 0.00568975 0.00548117 0.00527975 0.00508592 0.00490004 0.00472237 0.00455314 0.00439251 0.00424061 0.00409752 0.00396329 0.00383793 0.00372146 0.00361386 0.00351509 0.00342513 0.00334393 0.00327144 0.00320761 0.0031524 0.00310577 0.00306768 0.00303809 0.00301697 0.00300431 0.00300009 
0.00253347 0.00253738 0.00254914 0.00256876 0.00259627 0.00263171 0.00267513 0.00272659 0.00278617 0.00285394 0.00292998 0.00301439 0.00310726 0.0032087 0.00331878 0.00343761 0.00356527 0.00370184 0.00384737 0.00400191 0.00416549 0.00433809 0.00451967 0.00471015 0.0049094 0.00511723 0.0053334 0.00555757 0.00578935 0.00602824 0.00627363 0.00652482 0.00678098 0.00704115 0.00730422 0.00756898 0.00783402 0.00809781 0.00835863 0.0086146 0.00886367 0.00910363 0.00933214 0.0095468 0.00974521 0.00992506 0.0100842 0.0102207 0.0103329 0.0104195 0.0104792 0.0105114 0.0105157 0.010492 0.0104406 0.0103621 0.0102576 0.0101285 0.00997647 0.00980338 0.00961138 0.00940275 0.00917985 0.00894504 0.00870069 0.00844905 0.00819227 0.00793236 0.00767117 0.00741036 0.00715146 0.00689578 0.00664451 0.00639866 0.0061591 0.00592656 0.00570167 0.00548494 0.00527677 0.00507749 0.00488735 0.00470654 0.00453519 0.00437339 0.00422118 0.00407858 0.00394558 0.00382214 0.00370822 0.00360376 0.0035087 0.00342296 0.00334647 0.00327917 0.00322099 0.00317188 0.00313177 0.00310062 0.0030784 0.00306507 0.00306063 