<?xml version="1.0"?>
<VTKFile type="StructuredGrid" version="0.1">
    <StructuredGrid WholeExtent="0 100 0 100 0 0">
        <Piece Extent="0 100 0 100 0 0">
            <Points>
                <DataArray type="Float64" NumberOfComponents="3" format="ascii">
-15 -15 0
-15 -14.7 0
-15 -14.4 0
-15 -14.1 0
-15 -13.8 0
-15 -13.5 0
-15 -13.2 0
-15 -12.9 0
-15 -12.6 0
-15 -12.3 0
-15 -12 0
-15 -11.7 0
-15 -11.4 0
-15 -11.1 0
-15 -10.8 0
-15 -10.5 0
-15 -10.2 0
-15 -9.9 0
-15 -9.6 0
-15 -9.3 0
-15 -9 0
-15 -8.7 0
-15 -8.4 0
-15 -8.1 0
-15 -7.8 0
-15 -7.5 0
-15 -7.2 0
-15 -6.9 0
-15 -6.6 0
-15 -6.3 0
-15 -6 0
-15 -5.7 0
-15 -5.4 0
-15 -5.1 0
-15 -4.8 0
-15 -4.5 0
-15 -4.2 0
-15 -3.9 0
-15 -3.6 0
-15 -3.3 0
-15 -3 0
-15 -2.7 0
-15 -2.4 0
-15 -2.1 0
-15 -1.8 0
-15 -1.5 0
-15 -1.2 0
-15 -0.9 0
-15 -0.6 0
-15 -0.3 0
-15 0 0
-15 0.3 0
-15 0.6 0
-15 0.9 0
-15 1.2 0
-15 1.5 0
-15 1.8 0
-15 2.1 0
-15 2.4 0
-15 2.7 0
-15 3 0
-15 3.3 0
-15 3.6 0
-15 3.9 0
-15 4.2 0
-15 4.5 0
-15 4.8 0
-15 5.1 0
-15 5.4 0
-15 5.7 0
-15 6 0
-15 6.3 0
-15 6.6 0
-15 6.9 0
-15 7.2 0
-15 7.5 0
-15 7.8 0
-15 8.1 0
-15 8.4 0
-15 8.7 0
-15 9 0
-15 9.3 0
-15 9.6 0
-15 9.9 0
-15 10.2 0
-15 10.5 0
-15 10.8 0
-15 11.1 0
-15 11.4 0
-15 11.7 0
-15 12 0
-15 12.3 0
-15 12.6 0
-15 12.9 0
-15 13.2 0
-15 13.5 0
-15 13.8 0
-15 14.1 0
-15 14.4 0
-15 14.7 0
-15 15 0
-14.7 -15 0
-14.7 -14.7 0
-14.7 -14.4 0
-14.7 -14.1 0
-14.7 -13.8 0
-14.7 -13.5 0
-14.7 -13.2 0
-14.7 -12.9 0
-14.7 -12.6 0
-14.7 -12.3 0
-14.7 -12 0
-14.7 -11.7 0
-14.7 -11.4 0
-14.7 -11.1 0
-14.7 -10.8 0
-14.7 -10.5 0
-14.7 -10.2 0
-14.7 -9.9 0
-14.7 -9.6 0
-14.7 -9.3 0
-14.7 -9 0
-14.7 -8.7 0
-14.7 -8.4 0
-14.7 -8.1 0
-14.7 -7.8 0
-14.7 -7.5 0
-14.7 -7.2 0
-14.7 -6.9 0
-14.7 -6.6 0
-14.7 -6.3 0
-14.7 -6 0
-14.7 -5.7 0
-14.7 -5.4 0
-14.7 -5.1 0
-14.7 -4.8 0
-14.7 -4.5 0
-14.7 -4.2 0
-14.7 -3.9 0
-14.7 -3.6 0
-14.7 -3.3 0
-14.7 -3 0
-14.7 -2.7 0
-14.7 -2.4 0
-14.7 -2.1 0
-14.7 -1.8 0
-14.7 -1.5 0
-14.7 -1.2 0
-14.7 -0.9 0
-14.7 -0.6 0
-14.7 -0.3 0
-14.7 0 0
-14.7 0.3 0
-14.7 0.6 0
-14.7 0.9 0
-14.7 1.2 0
-14.7 1.5 0
-14.7 1.8 0
-14.7 2.1 0
-14.7 2.4 0
-14.7 2.7 0
-14.7 3 0
-14.7 3.3 0
-14.7 3.6 0
-14.7 3.9 0
-14.7 4.2 0
-14.7 4.5 0
-14.7 4.8 0
-14.7 5.1 0
-14.7 5.4 0
-14.7 5.7 0
-14.7 6 0
-14.7 6.3 0
-14.7 6.6 0
-14.7 6.9 0
-14.7 7.2 0
-14.7 7.5 0
-14.7 7.8 0
-14.7 8.1 0
-14.7 8.4 0
-14.7 8.7 0
-14.7 9 0
-14.7 9.3 0
-14.7 9.6 0
-14.7 9.9 0
-14.7 10.2 0
-14.7 10.5 0
-14.7 10.8 0
-14.7 11.1 0
-14.7 11.4 0
-14.7 11.7 0
-14.7 12 0
-14.7 12.3 0
-14.7 12.6 0
-14.7 12.9 0
-14.7 13.2 0
-14.7 13.5 0
-14.7 13.8 0
-14.7 14.1 0
-14.7 14.4 0
-14.7 14.7 0
-14.7 15 0
-14.4 -15 0
-14.4 -14.7 0
-14.4 -14.4 0
-14.4 -14.1 0
-14.4 -13.8 0
-14.4 -13.5 0
-14.4 -13.2 0
-14.4 -12.9 0
-14.4 -12.6 0
-14.4 -12.3 0
-14.4 -12 0
-14.4 -11.7 0
-14.4 -11.4 0
-14.4 -11.1 0
-14.4 -10.8 0
-14.4 -10.5 0
-14.4 -10.2 0
-14.4 -9.9 0
-14.4 -9.6 0
-14.4 -9.3 0
-14.4 -9 0
-14.4 -8.7 0
-14.4 -8.4 0
-14.4 -8.1 0
-14.4 -7.8 0
-14.4 -7.5 0
-14.4 -7.2 0
-14.4 -6.9 0
-14.4 -6.6 0
-14.4 -6.3 0
-14.4 -6 0
-14.4 -5.7 0
-14.4 -5.4 0
-14.4 -5.1 0
-14.4 -4.8 0
-14.4 -4.5 0
-14.4 -4.2 0
-14.4 -3.9 0
-14.4 -3.6 0
-14.4 -3.3 0
-14.4 -3 0
-14.4 -2.7 0
-14.4 -2.4 0
-14.4 -2.1 0
-14.4 -1.8 0
-14.4 -1.5 0
-14.4 -1.2 0
-14.4 -0.9 0
-14.4 -0.6 0
-14.4 -0.3 0
-14.4 0 0
-14.4 0.3 0
-14.4 0.6 0
-14.4 0.9 0
-14.4 1.2 0
-14.4 1.5 0
-14.4 1.8 0
-14.4 2.1 0
-14.4 2.4 0
-14.4 2.7 0
-14.4 3 0
-14.4 3.3 0
-14.4 3.6 0
-14.4 3.9 0
-14.4 4.2 0
-14.4 4.5 0
-14.4 4.8 0
-14.4 5.1 0
-14.4 5.4 0
-14.4 5.7 0
-14.4 6 0
-14.4 6.3 0
-14.4 6.6 0
-14.4 6.9 0
-14.4 7.2 0
-14.4 7.5 0
-14.4 7.8 0
-14.4 8.1 0
-14.4 8.4 0
-14.4 8.7 0
-14.4 9 0
-14.4 9.3 0
-14.4 9.6 0
-14.4 9.9 0
-14.4 10.2 0
-14.4 10.5 0
-14.4 10.8 0
-14.4 11.1 0
-14.4 11.4 0
-14.4 11.7 0
-14.4 12 0
-14.4 12.3 0
-14.4 12.6 0
-14.4 12.9 0
-14.4 13.2 0
-14.4 13.5 0
-14.4 13.8 0
-14.4 14.1 0
-14.4 14.4 0
-14.4 14.7 0
-14.4 15 0
-14.1 -15 0
-14.1 -14.7 0
-14.1 -14.4 0
-14.1 -14.1 0
-14.1 -13.8 0
-14.1 -13.5 0
-14.1 -13.2 0
-14.1 -12.9 0
-14.1 -12.6 0
-14.1 -12.3 0
-14.1 -12 0
-14.1 -11.7 0
-14.1 -11.4 0
-14.1 -11.1 0
-14.1 -10.8 0
-14.1 -10.5 0
-14.1 -10.2 0
-14.1 -9.9 0
-14.1 -9.6 0
-14.1 -9.3 0
-14.1 -9 0
-14.1 -8.7 0
-14.1 -8.4 0
-14.1 -8.1 0
-14.1 -7.8 0
-14.1 -7.5 0
-14.1 -7.2 0
-14.1 -6.9 0
-14.1 -6.6 0
-14.1 -6.3 0
-14.1 -6 0
-14.1 -5.7 0
-14.1 -5.4 0
-14.1 -5.1 0
-14.1 -4.8 0
-14.1 -4.5 0
-14.1 -4.2 0
-14.1 -3.9 0
-14.1 -3.6 0
-14.1 -3.3 0
-14.1 -3 0
-14.1 -2.7 0
-14.1 -2.4 0
-14.1 -2.1 0
-14.1 -1.8 0
-14.1 -1.5 0
-14.1 -1.2 0
-14.1 -0.9 0
-14.1 -0.6 0
-14.1 -0.3 0
-14.1 0 0
-14.1 0.3 0
-14.1 0.6 0
-14.1 0.9 0
-14.1 1.2 0
-14.1 1.5 0
-14.1 1.8 0
-14.1 2.1 0
-14.1 2.4 0
-14.1 2.7 0
-14.1 3 0
-14.1 3.3 0
-14.1 3.6 0
-14.1 3.9 0
-14.1 4.2 0
-14.1 4.5 0
-14.1 4.8 0
-14.1 5.1 0
-14.1 5.4 0
-14.1 5.7 0
-14.1 6 0
-14.1 6.3 0
-14.1 6.6 0
-14.1 6.9 0
-14.1 7.2 0
-14.1 7.5 0
-14.1 7.8 0
-14.1 8.1 0
-14.1 8.4 0
-14.1 8.7 0
-14.1 9 0
-14.1 9.3 0
-14.1 9.6 0
-14.1 9.9 0
-14.1 10.2 0
-14.1 10.5 0
-14.1 10.8 0
-14.1 11.1 0
-14.1 11.4 0
-14.1 11.7 0
-14.1 12 0
-14.1 12.3 0
-14.1 12.6 0
-14.1 12.9 0
-14.1 13.2 0
-14.1 13.5 0
-14.1 13.8 0
-14.1 14.1 0
-14.1 14.4 0
-14.1 14.7 0
-14.1 15 0
-13.8 -15 0
-13.8 -14.7 0
-13.8 -14.4 0
-13.8 -14.1 0
-13.8 -13.8 0
-13.8 -13.5 0
-13.8 -13.2 0
-13.8 -12.9 0
-13.8 -12.6 0
-13.8 -12.3 0
-13.8 -12 0
-13.8 -11.7 0
-13.8 -11.4 0
-13.8 -11.1 0
-13.8 -10.8 0
-13.8 -10.5 0
-13.8 -10.2 0
-13.8 -9.9 0
-13.8 -9.6 0
-13.8 -9.3 0
-13.8 -9 0
-13.8 -8.7 0
-13.8 -8.4 0
-13.8 -8.1 0
-13.8 -7.8 0
-13.8 -7.5 0
-13.8 -7.2 0
-13.8 -6.9 0
-13.8 -6.6 0
-13.8 -6.3 0
-13.8 -6 0
-13.8 -5.7 0
-13.8 -5.4 0
-13.8 -5.1 0
-13.8 -4.8 0
-13.8 -4.5 0
-13.8 -4.2 0
-13.8 -3.9 0
-13.8 -3.6 0
-13.8 -3.3 0
-13.8 -3 0
-13.8 -2.7 0
-13.8 -2.4 0
-13.8 -2.1 0
-13.8 -1.8 0
-13.8 -1.5 0
-13.8 -1.2 0
-13.8 -0.9 0
-13.8 -0.6 0
-13.8 -0.3 0
-13.8 0 0
-13.8 0.3 0
-13.8 0.6 0
-13.8 0.9 0
-13.8 1.2 0
-13.8 1.5 0
-13.8 1.8 0
-13.8 2.1 0
-13.8 2.4 0
-13.8 2.7 0
-13.8 3 0
-13.8 3.3 0
-13.8 3.6 0
-13.8 3.9 0
-13.8 4.2 0
-13.8 4.5 0
-13.8 4.8 0
-13.8 5.1 0
-13.8 5.4 0
-13.8 5.7 0
-13.8 6 0
-13.8 6.3 0
-13.8 6.6 0
-13.8 6.9 0
-13.8 7.2 0
-13.8 7.5 0
-13.8 7.8 0
-13.8 8.1 0
-13.8 8.4 0
-13.8 8.7 0
-13.8 9 0
-13.8 9.3 0
-13.8 9.6 0
-13.8 9.9 0
-13.8 10.2 0
-13.8 10.5 0
-13.8 10.8 0
-13.8 11.1 0
-13.8 11.4 0
-13.8 11.7 0
-13.8 12 0
-13.8 12.3 0
-13.8 12.6 0
-13.8 12.9 0
-13.8 13.2 0
-13.8 13.5 0
-13.8 13.8 0
-13.8 14.1 0
-13.8 14.4 0
-13.8 14.7 0
-13.8 15 0
-13.5 -15 0
-13.5 -14.7 0
-13.5 -14.4 0
-13.5 -14.1 0
-13.5 -13.8 0
-13.5 -13.5 0
-13.5 -13.2 0
-13.5 -12.9 0
-13.5 -12.6 0
-13.5 -12.3 0
-13.5 -12 0
-13.5 -11.7 0
-13.5 -11.4 0
-13.5 -11.1 0
-13.5 -10.8 0
-13.5 -10.5 0
-13.5 -10.2 0
-13.5 -9.9 0
-13.5 -9.6 0
-13.5 -9.3 0
-13.5 -9 0
-13.5 -8.7 0
-13.5 -8.4 0
-13.5 -8.1 0
-13.5 -7.8 0
-13.5 -7.5 0
-13.5 -7.2 0
-13.5 -6.9 0
-13.5 -6.6 0
-13.5 -6.3 0
-13.5 -6 0
-13.5 -5.7 0
-13.5 -5.4 0
-13.5 -5.1 0
-13.5 -4.8 0
-13.5 -4.5 0
-13.5 -4.2 0
-13.5 -3.9 0
-13.5 -3.6 0
-13.5 -3.3 0
-13.5 -3 0
-13.5 -2.7 0
-13.5 -2.4 0
-13.5 -2.1 0
-13.5 -1.8 0
-13.5 -1.5 0
-13.5 -1.2 0
-13.5 -0.9 0
-13.5 -0.6 0
-13.5 -0.3 0
-13.5 0 0
-13.5 0.3 0
-13.5 0.6 0
-13.5 0.9 0
-13.5 1.2 0
-13.5 1.5 0
-13.5 1.8 0
-13.5 2.1 0
-13.5 2.4 0
-13.5 2.7 0
-13.5 3 0
-13.5 3.3 0
-13.5 3.6 0
-13.5 3.9 0
-13.5 4.2 0
-13.5 4.5 0
-13.5 4.8 0
-13.5 5.1 0
-13.5 5.4 0
-13.5 5.7 0
-13.5 6 0
-13.5 6.3 0
-13.5 6.6 0
-13.5 6.9 0
-13.5 7.2 0
-13.5 7.5 0
-13.5 7.8 0
-13.5 8.1 0
-13.5 8.4 0
-13.5 8.7 0
-13.5 9 0
-13.5 9.3 0
-13.5 9.6 0
-13.5 9.9 0
-13.5 10.2 0
-13.5 10.5 0
-13.5 10.8 0
-13.5 11.1 0
-13.5 11.4 0
-13.5 11.7 0
-13.5 12 0
-13.5 12.3 0
-13.5 12.6 0
-13.5 12.9 0
-13.5 13.2 0
-13.5 13.5 0
-13.5 13.8 0
-13.5 14.1 0
-13.5 14.4 0
-13.5 14.7 0
-13.5 15 0
-13.2 -15 0
-13.2 -14.7 0
-13.2 -14.4 0
-13.2 -14.1 0
-13.2 -13.8 0
-13.2 -13.5 0
-13.2 -13.2 0
-13.2 -12.9 0
-13.2 -12.6 0
-13.2 -12.3 0
-13.2 -12 0
-13.2 -11.7 0
-13.2 -11.4 0
-13.2 -11.1 0
-13.2 -10.8 0
-13.2 -10.5 0
-13.2 -10.2 0
-13.2 -9.9 0
-13.2 -9.6 0
-13.2 -9.3 0
-13.2 -9 0
-13.2 -8.7 0
-13.2 -8.4 0
-13.2 -8.1 0
-13.2 -7.8 0
-13.2 -7.5 0
-13.2 -7.2 0
-13.2 -6.9 0
-13.2 -6.6 0
-13.2 -6.3 0
-13.2 -6 0
-13.2 -5.7 0
-13.2 -5.4 0
-13.2 -5.1 0
-13.2 -4.8 0
-13.2 -4.5 0
-13.2 -4.2 0
-13.2 -3.9 0
-13.2 -3.6 0
-13.2 -3.3 0
-13.2 -3 0
-13.2 -2.7 0
-13.2 -2.4 0
-13.2 -2.1 0
-13.2 -1.8 0
-13.2 -1.5 0
-13.2 -1.2 0
-13.2 -0.9 0
-13.2 -0.6 0
-13.2 -0.3 0
-13.2 0 0
-13.2 0.3 0
-13.2 0.6 0
-13.2 0.9 0
-13.2 1.2 0
-13.2 1.5 0
-13.2 1.8 0
-13.2 2.1 0
-13.2 2.4 0
-13.2 2.7 0
-13.2 3 0
-13.2 3.3 0
-13.2 3.6 0
-13.2 3.9 0
-13.2 4.2 0
-13.2 4.5 0
-13.2 4.8 0
-13.2 5.1 0
-13.2 5.4 0
-13.2 5.7 0
-13.2 6 0
-13.2 6.3 0
-13.2 6.6 0
-13.2 6.9 0
-13.2 7.2 0
-13.2 7.5 0
-13.2 7.8 0
-13.2 8.1 0
-13.2 8.4 0
-13.2 8.7 0
-13.2 9 0
-13.2 9.3 0
-13.2 9.6 0
-13.2 9.9 0
-13.2 10.2 0
-13.2 10.5 0
-13.2 10.8 0
-13.2 11.1 0
-13.2 11.4 0
-13.2 11.7 0
-13.2 12 0
-13.2 12.3 0
-13.2 12.6 0
-13.2 12.9 0
-13.2 13.2 0
-13.2 13.5 0
-13.2 13.8 0
-13.2 14.1 0
-13.2 14.4 0
-13.2 14.7 0
-13.2 15 0
-12.9 -15 0
-12.9 -14.7 0
-12.9 -14.4 0
-12.9 -14.1 0
-12.9 -13.8 0
-12.9 -13.5 0
-12.9 -13.2 0
-12.9 -12.9 0
-12.9 -12.6 0
-12.9 -12.3 0
-12.9 -12 0
-12.9 -11.7 0
-12.9 -11.4 0
-12.9 -11.1 0
-12.9 -10.8 0
-12.9 -10.5 0
-12.9 -10.2 0
-12.9 -9.9 0
-12.9 -9.6 0
-12.9 -9.3 0
-12.9 -9 0
-12.9 -8.7 0
-12.9 -8.4 0
-12.9 -8.1 0
-12.9 -7.8 0
-12.9 -7.5 0
-12.9 -7.2 0
-12.9 -6.9 0
-12.9 -6.6 0
-12.9 -6.3 0
-12.9 -6 0
-12.9 -5.7 0
-12.9 -5.4 0
-12.9 -5.1 0
-12.9 -4.8 0
-12.9 -4.5 0
-12.9 -4.2 0
-12.9 -3.9 0
-12.9 -3.6 0
-12.9 -3.3 0
-12.9 -3 0
-12.9 -2.7 0
-12.9 -2.4 0
-12.9 -2.1 0
-12.9 -1.8 0
-12.9 -1.5 0
-12.9 -1.2 0
-12.9 -0.9 0
-12.9 -0.6 0
-12.9 -0.3 0
-12.9 0 0
-12.9 0.3 0
-12.9 0.6 0
-12.9 0.9 0
-12.9 1.2 0
-12.9 1.5 0
-12.9 1.8 0
-12.9 2.1 0
-12.9 2.4 0
-12.9 2.7 0
-12.9 3 0
-12.9 3.3 0
-12.9 3.6 0
-12.9 3.9 0
-12.9 4.2 0
-12.9 4.5 0
-12.9 4.8 0
-12.9 5.1 0
-12.9 5.4 0
-12.9 5.7 0
-12.9 6 0
-12.9 6.3 0
-12.9 6.6 0
-12.9 6.9 0
-12.9 7.2 0
-12.9 7.5 0
-12.9 7.8 0
-12.9 8.1 0
-12.9 8.4 0
-12.9 8.7 0
-12.9 9 0
[...]
            <PointData>
                <DataArray type="Float64" Name="c1" format="ascii">
0.00201385 0.00201612 0.00202294 0.00203429 0.00205017 0.00207056 0.00209544 0.00212478 0.00215856 0.00219674 0.00223927 0.0022861 0.00233716 0.00239239 0.00245171 0.00251501 0.0025822 0.00265315 0.00272772 0.00280577 0.00288712 0.0029716 0.00305898 0.00314904 0.00324154 0.0033362 0.00343273 0.00353081 0.00363011 0.00373027 0.0038309 0.00393161 0.00403196 0.00413152 0.00422983 0.00432642 0.00442082 0.00451253 0.00460106 0.00468594 0.00476666 0.00484277 0.00491381 0.00497933 0.00503894 0.00509225 0.00513892 0.00517864 0.00521117 0.00523628 0.00525383 0.0052637 0.00526585 0.00526028 0.00524706 0.00522631 0.00519818 0.00516291 0.00512077 0.00507206 0.00501715 0.00495642 0.00489029 0.0048192 0.00474362 0.00466404 0.00458093 0.0044948 0.00440614 0.00431544 0.0042232 0.00412987 0.00403594 0.00394183 0.00384798 0.0037548 0.00366267 0.00357196 0.00348301 0.00339614 0.00331166 0.00322983 0.00315091 0.00307513 0.00300272 0.00293386 0.00286873 0.0028075 0.00275029 0.00269724 0.00264846 0.00260406 0.00256411 0.0025287 0.00249788 0.00247172 0.00245025 0.00243352 0.00242155 0.00241436 0.00241196 
0.00201546 0.00201774 0.00202457 0.00203595 0.00205187 0.00207231 0.00209725 0.00212667 0.00216053 0.0021988 0.00224144 0.00228839 0.00233959 0.00239496 0.00245444 0.00251792 0.00258529 0.00265644 0.00273124 0.00280952 0.00289113 0.00297587 0.00306353 0.0031539 0.00324671 0.0033417 0.00343858 0.00353702 0.0036367 0.00373725 0.00383828 0.0039394 0.00404017 0.00414015 0.0042389 0.00433592 0.00443075 0.00452289 0.00461185 0.00469714 0.00477827 0.00485476 0.00492616 0.00499202 0.00505194 0.00510552 0.00515244 0.00519237 0.00522506 0.00525031 0.00526794 0.00527785 0.00528 0.00527439 0.00526108 0.00524019 0.00521189 0.00517641 0.00513402 0.00508503 0.0050298 0.00496873 0.00490224 0.00483077 0.00475479 0.00467479 0.00459126 0.0045047 0.00441561 0.00432449 0.00423181 0.00413807 0.00404372 0.0039492 0.00385496 0.0037614 0.0036689 0.00357783 0.00348854 0.00340135 0.00331656 0.00323444 0.00315525 0.00307922 0.00300657 0.00293748 0.00287215 0.00281072 0.00275334 0.00270013 0.00265121 0.00260667 0.00256661 0.0025311 0.00250019 0.00247396 0.00245243 0.00243566 0.00242365 0.00241644 0.00241404 
0.00202031 0.0020226 0.00202948 0.00204094 0.00205697 0.00207756 0.00210268 0.00213231 0.00216643 0.00220498 0.00224794 0.00229525 0.00234685 0.00240267 0.00246262 0.00252663 0.00259457 0.00266634 0.00274179 0.00282078 0.00290314 0.00298868 0.0030772 0.00316846 0.00326222 0.00335821 0.00345613 0.00355566 0.00365647 0.00375819 0.00386043 0.00396278 0.00406482 0.00416609 0.00426613 0.00436447 0.0044606 0.00455404 0.00464427 0.00473081 0.00481314 0.00489078 0.00496327 0.00503016 0.00509101 0.00514544 0.00519309 0.00523365 0.00526685 0.00529248 0.00531037 0.00532041 0.00532255 0.0053168 0.00530322 0.00528193 0.00525311 0.00521698 0.00517384 0.005124 0.00506784 0.00500574 0.00493815 0.00486553 0.00478835 0.0047071 0.00462231 0.00453446 0.00444407 0.00435165 0.00425769 0.00416267 0.00406707 0.00397134 0.00387591 0.00378119 0.00368758 0.00359545 0.00350515 0.00341699 0.00333127 0.00324828 0.00316827 0.00309147 0.00301809 0.00294834 0.00288239 0.00282038 0.00276248 0.00270879 0.00265944 0.00261451 0.00257411 0.00253829 0.00250713 0.00248067 0.00245897 0.00244206 0.00242995 0.00242269 0.00242026 
0.00202837 0.00203069 0.00203765 0.00204924 0.00206546 0.00208629 0.00211171 0.0021417 0.00217623 0.00221527 0.00225877 0.00230668 0.00235894 0.00241549 0.00247625 0.00254113 0.00261003 0.00268282 0.00275937 0.00283954 0.00292316 0.00301004 0.00309998 0.00319275 0.00328809 0.00338575 0.00348541 0.00358676 0.00368946 0.00379314 0.0038974 0.00400183 0.00410599 0.00420942 0.00431164 0.00441217 0.0045105 0.00460611 0.00469849 0.00478711 0.00487147 0.00495106 0.00502538 0.00509398 0.00515641 0.00521225 0.00526115 0.00530277 0.00533683 0.00536311 0.00538143 0.00539169 0.00539381 0.00538782 0.00537378 0.00535182 0.00532212 0.00528492 0.00524051 0.00518924 0.00513149 0.00506767 0.00499824 0.00492367 0.00484446 0.00476113 0.0046742 0.00458419 0.00449163 0.00439703 0.00430091 0.00420376 0.00410606 0.00400828 0.00391086 0.00381422 0.00371876 0.00362485 0.00353283 0.00344305 0.0033558 0.00327135 0.00318996 0.00311188 0.0030373 0.00296643 0.00289944 0.00283648 0.00277769 0.00272321 0.00267313 0.00262756 0.00258658 0.00255026 0.00251867 0.00249185 0.00246985 0.0024527 0.00244044 0.00243307 0.00243062 
0.00203961 0.00204197 0.00204905 0.00206083 0.00207731 0.00209848 0.00212433 0.00215482 0.00218993 0.00222963 0.00227388 0.00232264 0.00237584 0.00243342 0.00249531 0.00256141 0.00263164 0.00270586 0.00278396 0.00286579 0.00295118 0.00303994 0.00313188 0.00322676 0.00332434 0.00342433 0.00352645 0.00363037 0.00373574 0.00384218 0.00394929 0.00405665 0.0041638 0.00427028 0.00437559 0.00447922 0.00458065 0.00467935 0.00477476 0.00486636 0.00495359 0.00503593 0.00511286 0.00518389 0.00524855 0.00530641 0.00535708 0.00540021 0.00543549 0.00546269 0.00548163 0.00549219 0.0054943 0.00548797 0.00547327 0.00545035 0.0054194 0.00538066 0.00533446 0.00528116 0.00522115 0.00515488 0.00508283 0.00500551 0.00492343 0.00483714 0.00474719 0.00465411 0.00455846 0.00446079 0.00436161 0.00426145 0.00416079 0.00406013 0.0039599 0.00386054 0.00376246 0.00366604 0.00357163 0.00347956 0.00339014 0.00330365 0.00322033 0.00314044 0.00306417 0.00299173 0.00292328 0.00285898 0.00279897 0.00274336 0.00269227 0.00264579 0.00260401 0.00256698 0.00253478 0.00250745 0.00248504 0.00246757 0.00245508 0.00244757 0.00244507 
0.00205402 0.00205642 0.00206364 0.00207567 0.00209249 0.0021141 0.00214048 0.00217162 0.00220748 0.00224804 0.00229326 0.0023431 0.00239751 0.00245641 0.00251975 0.00258744 0.00265938 0.00273546 0.00281555 0.00289951 0.00298718 0.00307838 0.0031729 0.00327051 0.00337098 0.00347401 0.00357931 0.00368655 0.00379537 0.0039054 0.00401621 0.00412738 0.00423843 0.00434887 0.0044582 0.00456589 0.00467137 0.00477409 0.00487347 0.00496895 0.00505994 0.00514588 0.00522623 0.00530045 0.00536805 0.00542855 0.00548154 0.00552664 0.00556353 0.00559195 0.0056117 0.00562264 0.00562473 0.00561796 0.00560241 0.00557822 0.00554562 0.00550487 0.00545632 0.00540034 0.00533737 0.0052679 0.00519243 0.0051115 0.00502566 0.0049355 0.00484159 0.00474451 0.00464485 0.00454316 0.00444 0.00433591 0.00423141 0.00412699 0.00402312 0.00392024 0.00381876 0.00371909 0.00362157 0.00352654 0.00343432 0.00334518 0.00325937 0.00317714 0.00309869 0.00302422 0.00295389 0.00288786 0.00282626 0.00276921 0.00271682 0.00266917 0.00262634 0.00258841 0.00255543 0.00252744 0.00250449 0.00248661 0.00247382 0.00246614 0.00246358 
0.00207153 0.00207399 0.00208139 0.00209371 0.00211095 0.00213309 0.00216014 0.00219206 0.00222884 0.00227045 0.00231686 0.00236803 0.0024239 0.00248443 0.00254955 0.00261917 0.00269321 0.00277156 0.0028541 0.00294068 0.00303116 0.00312535 0.00322304 0.00332402 0.00342804 0.00353481 0.00364403 0.00375537 0.00386847 0.00398293 0.00409833 0.00421421 0.0043301 0.00444547 0.00455979 0.00467251 0.00478303 0.00489076 0.0049951 0.00509541 0.0051911 0.00528156 0.00536617 0.00544439 0.00551566 0.00557947 0.00563537 0.00568295 0.00572185 0.00575179 0.00577256 0.00578401 0.00578606 0.00577873 0.0057621 0.00573634 0.00570167 0.0056584 0.00560688 0.00554756 0.00548089 0.0054074 0.00532764 0.00524219 0.00515167 0.00505667 0.00495784 0.00485577 0.0047511 0.00464442 0.00453632 0.00442737 0.0043181 0.00420902 0.00410064 0.0039934 0.00388773 0.00378404 0.00368269 0.00358402 0.00348834 0.00339593 0.00330706 0.00322196 0.00314083 0.00306387 0.00299124 0.00292308 0.00285954 0.00280072 0.00274672 0.00269764 0.00265354 0.0026145 0.00258056 0.00255177 0.00252817 0.00250978 0.00249663 0.00248874 0.0024861 
0.00209209 0.00209463 0.00210223 0.0021149 0.00213263 0.00215541 0.00218324 0.00221609 0.00225395 0.0022968 0.00234462 0.00239735 0.00245497 0.00251742 0.00258464 0.00265656 0.0027331 0.00281414 0.00289958 0.00298928 0.00308309 0.00318083 0.00328231 0.0033873 0.00349555 0.00360678 0.00372069 0.00383694 0.00395515 0.00407493 0.00419582 0.00431737 0.00443906 0.00456037 0.00468071 0.0047995 0.00491611 0.0050299 0.00514023 0.00524641 0.0053478 0.00544372 0.00553353 0.0056166 0.00569234 0.00576018 0.00581963 0.00587023 0.00591159 0.00594339 0.0059654 0.00597745 0.00597947 0.00597146 0.00595352 0.00592583 0.00588864 0.00584228 0.00578717 0.00572376 0.00565258 0.00557421 0.00548924 0.00539832 0.0053021 0.00520125 0.00509644 0.00498835 0.00487764 0.00476494 0.00465089 0.00453607 0.00442106 0.0043064 0.00419261 0.00408014 0.00396946 0.00386096 0.00375503 0.003652 0.0035522 0.00345592 0.0033634 0.00327488 0.00319056 0.00311064 0.00303526 0.00296459 0.00289874 0.00283782 0.00278193 0.00273114 0.00268554 0.00264518 0.00261011 0.00258037 0.00255599 0.00253701 0.00252343 0.00251528 0.00251256 
0.00211565 0.00211827 0.00212611 0.00213918 0.00215748 0.00218099 0.00220971 0.00224364 0.00228275 0.00232704 0.00237647 0.00243102 0.00249065 0.00255532 0.00262498 0.00269955 0.00277897 0.00286314 0.00295194 0.00304526 0.00314294 0.00324481 0.00335069 0.00346034 0.00357353 0.00368998 0.00380936 0.00393134 0.00405555 0.00418155 0.0043089 0.00443711 0.00456564 0.00469393 0.00482138 0.00494734 0.00507115 0.00519213 0.00530956 0.00542272 0.00553088 0.00563331 0.0057293 0.00581816 0.00589924 0.0059719 0.00603559 0.0060898 0.0061341 0.00616813 0.00619163 0.00620441 0.00620638 0.00619756 0.00617805 0.00614805 0.00610784 0.0060578 0.00599838 0.00593009 0.00585353 0.00576933 0.00567815 0.0055807 0.00547771 0.00536991 0.00525803 0.0051428 0.00502493 0.00490512 0.00478404 0.00466231 0.00454056 0.00441934 0.00429918 0.0041806 0.00406403 0.00394992 0.00383863 0.00373053 0.00362593 0.00352511 0.00342834 0.00333585 0.00324783 0.00316446 0.00308592 0.00301232 0.00294379 0.00288044 0.00282235 0.00276961 0.00272226 0.00268038 0.002644 0.00261316 0.00258789 0.00256821 0.00255414 0.0025457 0.00254288 
0.00214212 0.00214483 0.00215294 0.00216647 0.00218541 0.00220975 0.00223949 0.00227463 0.00231516 0.00236107 0.00241233 0.00246894 0.00253086 0.00259805 0.00267048 0.00274807 0.00283077 0.00291849 0.00301113 0.00310857 0.00321067 0.00331726 0.00342817 0.00354317 0.00366202 0.00378444 0.00391011 0.0040387 0.0041698 0.00430299 0.0044378 0.00457371 0.00471017 0.00484657 0.00498227 0.00511659 0.0052488 0.00537816 0.0055039 0.00562522 0.00574132 0.0058514 0.00595466 0.00605033 0.00613769 0.00621603 0.00628473 0.00634321 0.00639098 0.00642765 0.00645291 0.00646656 0.00646849 0.00645871 0.00643734 0.00640461 0.00636084 0.00630644 0.00624193 0.0061679 0.00608499 0.00599392 0.00589544 0.00579033 0.0056794 0.00556345 0.00544329 0.00531972 0.00519352 0.00506543 0.00493618 0.00480644 0.00467686 0.00454805 0.00442055 0.0042949 0.00417156 0.00405098 0.00393354 0.00381961 0.0037095 0.0036035 0.00350187 0.00340483 0.00331258 0.00322529 0.00314312 0.00306619 0.00299462 0.00292851 0.00286792 0.00281294 0.00276362 0.00272001 0.00268214 0.00265005 0.00262377 0.0026033 0.00258868 0.0025799 0.00257697 
0.00217142 0.00217423 0.00218265 0.00219668 0.00221633 0.0022416 0.00227248 0.00230897 0.00235109 0.00239881 0.00245213 0.00251103 0.00257551 0.00264553 0.00272105 0.00280203 0.00288841 0.00298012 0.00307707 0.00317915 0.00328622 0.00339814 0.00351473 0.00363576 0.00376102 0.00389021 0.00402302 0.0041591 0.00429806 0.00443944 0.00458277 0.00472749 0.00487302 0.00501873 0.00516392 0.00530785 0.00544975 0.00558881 0.00572416 0.00585494 0.00598026 0.00609922 0.00621094 0.00631456 0.00640925 0.00649422 0.00656877 0.00663225 0.0066841 0.00672387 0.0067512 0.00676587 0.00676775 0.00675685 0.00673332 0.00669739 0.00664944 0.00658995 0.0065195 0.00643874 0.00634843 0.00624935 0.00614236 0.00602834 0.00590818 0.00578278 0.00565304 0.00551984 0.00538402 0.00524639 0.00510775 0.00496881 0.00483028 0.00469277 0.0045569 0.00442319 0.00429215 0.00416422 0.0040398 0.00391926 0.00380291 0.00369106 0.00358393 0.00348177 0.00338475 0.00329304 0.0032068 0.00312613 0.00305114 0.00298191 0.00291853 0.00286104 0.00280951 0.00276396 0.00272443 0.00269094 0.00266352 0.00264218 0.00262693 0.00261778 0.00261472 
0.00220345 0.00220637 0.00221512 0.00222972 0.00225015 0.00227644 0.00230857 0.00234657 0.00239043 0.00244015 0.00249574 0.00255719 0.0026245 0.00269764 0.0027766 0.00286133 0.0029518 0.00304794 0.00314968 0.00325692 0.00336954 0.00348739 0.00361032 0.00373811 0.00387053 0.00400731 0.00414814 0.00429266 0.00444047 0.0045911 0.00474405 0.00489876 0.0050546 0.00521089 0.00536689 0.00552181 0.00567479 0.00582495 0.00597134 0.006113 0.00624894 0.00637816 0.00649966 0.00661247 0.00671566 0.00680834 0.0068897 0.00695899 0.00701559 0.00705897 0.00708873 0.0071046 0.00710643 0.00709425 0.0070682 0.00702856 0.00697576 0.00691034 0.00683297 0.00674441 0.0066455 0.00653714 0.00642031 0.00629599 0.00616519 0.00602892 0.00588817 0.00574391 0.00559708 0.00544857 0.00529923 0.00514983 0.00500112 0.00485378 0.00470842 0.00456562 0.00442589 0.00428969 0.00415742 0.00402947 0.00390614 0.00378772 0.00367447 0.00356658 0.00346424 0.00336762 0.00327684 0.003192 0.00311322 0.00304055 0.00297406 0.00291379 0.0028598 0.00281211 0.00277074 0.00273571 0.00270703 0.00268472 0.00266878 0.00265921 0.00265602 
0.0022381 0.00224114 0.00225026 0.00226547 0.00228676 0.00231416 0.00234767 0.0023873 0.00243307 0.00248498 0.00254306 0.00260729 0.0026777 0.00275427 0.00283699 0.00292585 0.00302082 0.00312183 0.00322885 0.00334178 0.00346052 0.00358494 0.00371488 0.00385016 0.00399055 0.00413577 0.00428554 0.00443947 0.00459717 0.00475816 0.00492192 0.00508786 0.00525531 0.00542356 0.0055918 0.00575918 0.00592476 0.00608757 0.00624656 0.00640067 0.00654878 0.00668977 0.00682252 0.00694593 0.00705893 0.00716051 0.00724974 0.00732578 0.0073879 0.00743548 0.00746807 0.00748535 0.00748715 0.00747349 0.00744452 0.00740059 0.00734218 0.00726991 0.00718454 0.00708695 0.0069781 0.00685905 0.00673088 0.00659472 0.00645171 0.00630298 0.00614966 0.0059928 0.00583346 0.00567259 0.00551112 0.0053499 0.00518973 0.00503131 0.00487531 0.00472232 0.00457287 0.00442744 0.00428643 0.00415022 0.00401914 0.00389344 0.00377339 0.00365917 0.00355096 0.00344891 0.00335312 0.0032637 0.00318074 0.00310427 0.00303437 0.00297106 0.00291437 0.00286433 0.00282094 0.00278422 0.00275417 0.00273079 0.00271409 0.00270407 0.00270073 
0.00227526 0.00227843 0.00228795 0.00230381 0.00232604 0.00235464 0.00238964 0.00243104 0.00247888 0.00253317 0.00259394 0.00266121 0.00273498 0.00281528 0.00290211 0.00299546 0.00309532 0.00320167 0.00331445 0.00343361 0.00355906 0.00369068 0.00382834 0.00397186 0.00412102 0.00427558 0.00443522 0.00459959 0.00476828 0.00494081 0.00511663 0.00529512 0.00547559 0.00565726 0.00583929 0.00602072 0.00620056 0.00637771 0.00655102 0.0067193 0.0068813 0.00703576 0.0071814 0.00731697 0.00744125 0.0075531 0.00765143 0.00773527 0.00780377 0.00785625 0.00789214 0.00791107 0.00791287 0.00789752 0.00786521 0.00781633 0.00775144 0.00767125 0.00757666 0.00746866 0.00734838 0.00721702 0.00707583 0.00692611 0.00676914 0.00660621 0.00643858 0.00626743 0.0060939 0.00591908 0.00574396 0.00556946 0.00539643 0.00522563 0.00505776 0.00489342 0.00473317 0.00457749 0.00442681 0.00428148 0.00414183 0.00400813 0.00388059 0.00375942 0.00364477 0.00353676 0.00343551 0.00334108 0.00325354 0.00317295 0.00309932 0.00303269 0.00297307 0.00292047 0.00287488 0.00283632 0.00280477 0.00278024 0.00276272 0.00275221 0.00274871 
0.00231479 0.0023181 0.00232804 0.00234462 0.00236785 0.00239775 0.00243434 0.00247765 0.00252772 0.00258458 0.00264825 0.00271878 0.00279619 0.00288052 0.00297178 0.00307 0.00317517 0.00328729 0.00340634 0.00353227 0.00366502 0.00380449 0.00395058 0.00410311 0.00426189 0.00442669 0.0045972 0.00477308 0.0049539 0.0051392 0.0053284 0.00552085 0.00571584 0.00591253 0.00611 0.00630723 0.00650312 0.00669648 0.00688601 0.00707038 0.00724818 0.007418 0.00757837 0.00772787 0.00786511 0.00798876 0.00809757 0.00819042 0.00826633 0.00832448 0.00836423 0.00838513 0.00838695 0.00836969 0.00833357 0.008279 0.00820665 0.00811735 0.00801212 0.00789215 0.00775872 0.00761323 0.00745713 0.0072919 0.00711902 0.00693995 0.00675607 0.00656875 0.00637924 0.00618873 0.0059983 0.00580894 0.00562157 0.00543698 0.00525592 0.00507901 0.00490683 0.00473986 0.00457852 0.00442318 0.00427414 0.00413166 0.00399595 0.00386719 0.00374552 0.00363103 0.00352383 0.00342396 0.00333147 0.00324639 0.00316874 0.00309851 0.00303572 0.00298035 0.0029324 0.00289185 0.00285869 0.00283291 0.00281451 0.00280347 0.00279979 
0.00235654 0.00236001 0.0023704 0.00238774 0.00241204 0.00244332 0.00248162 0.00252698 0.00257943 0.00263903 0.00270581 0.00277984 0.00286115 0.00294981 0.00304584 0.00314928 0.00326017 0.00337852 0.00350433 0.00363758 0.00377823 0.00392622 0.00408145 0.00424379 0.00441306 0.00458903 0.00477143 0.00495993 0.0051541 0.00535346 0.00555744 0.00576536 0.00597646 0.00618987 0.00640459 0.00661951 0.00683344 0.00704503 0.00725288 0.00745547 0.00765122 0.0078385 0.00801569 0.00818113 0.00833322 0.00847043 0.00859132 0.00869458 0.00877907 0.00884382 0.00888807 0.0089113 0.00891323 0.00889383 0.00885333 0.00879225 0.00871132 0.00861153 0.00849407 0.00836031 0.00821178 0.0080501 0.00787694 0.00769401 0.00750302 0.00730561 0.00710337 0.00689781 0.00669032 0.00648221 0.00627466 0.00606875 0.00586544 0.00566558 0.00546994 0.00527918 0.00509387 0.0049145 0.00474149 0.0045752 0.00441592 0.00426389 0.0041193 0.00398231 0.00385302 0.00373153 0.00361789 0.00351215 0.00341432 0.00332441 0.00324242 0.00316833 0.00310213 0.0030438 0.0029933 0.00295062 0.00291573 0.00288862 0.00286927 0.00285766 0.00285379 
0.00240038 0.002404 0.00241488 0.00243302 0.00245845 0.00249121 0.00253133 0.00257885 0.00263384 0.00269636 0.00276646 0.00284421 0.00292968 0.00302295 0.00312407 0.00323311 0.00335012 0.00347515 0.00360821 0.00374933 0.0038985 0.00405567 0.00422078 0.00439373 0.00457437 0.00476249 0.00495784 0.00516011 0.00536888 0.00558367 0.0058039 0.00602889 0.00625782 0.00648977 0.00672368 0.00695836 0.00719248 0.00742457 0.00765305 0.00787622 0.00809231 0.00829946 0.00849581 0.00867945 0.00884856 0.00900136 0.00913616 0.00925146 0.0093459 0.00941834 0.00946788 0.00949389 0.00949602 0.00947422 0.00942876 0.0093602 0.00926942 0.00915755 0.00902602 0.00887642 0.00871054 0.00853028 0.00833761 0.0081345 0.00792291 0.00770473 0.00748175 0.00725565 0.007028 0.00680022 0.0065736 0.00634929 0.00612833 0.00591161 0.00569992 0.00549394 0.00529425 0.00510134 0.00491561 0.00473742 0.00456702 0.00440464 0.00425044 0.00410455 0.00396706 0.00383803 0.00371748 0.00360543 0.00350188 0.0034068 0.00332016 0.00324195 0.0031721 0.0031106 0.00305739 0.00301243 0.0029757 0.00294717 0.00292681 0.00291459 0.00291052 
0.00244612 0.00244991 0.0024613 0.00248029 0.00250693 0.00254124 0.00258327 0.00263309 0.00269077 0.00275636 0.00282997 0.00291168 0.00300157 0.00309973 0.00320627 0.00332126 0.0034448 0.00357694 0.00371776 0.0038673 0.00402558 0.00419261 0.00436834 0.00455272 0.00474563 0.00494689 0.00515629 0.00537352 0.0055982 0.00582985 0.00606789 0.00631162 0.00656021 0.00681267 0.00706788 0.00732455 0.00758122 0.00783628 0.00808796 0.00833437 0.00857348 0.00880319 0.00902135 0.00922581 0.00941442 0.00958512 0.00973597 0.00986519 0.00997118 0.0100526 0.0101084 0.0101377 0.0101402 0.0101157 0.0100646 0.00998753 0.00988542 0.00975966 0.00961191 0.00944407 0.00925825 0.0090567 0.0088417 0.00861558 0.00838059 0.00813889 0.00789251 0.00764334 0.00739312 0.0071434 0.00689559 0.00665092 0.00641047 0.0061752 0.0059459 0.00572328 0.0055079 0.00530025 0.00510072 0.00490963 0.00472722 0.00455367 0.00438913 0.00423369 0.0040874 0.00395028 0.00382234 0.00370355 0.00359389 0.0034933 0.00340173 0.00331912 0.0032454 0.00318053 0.00312444 0.00307708 0.00303839 0.00300835 0.00298692 0.00297406 0.00296978 