<?xml version="1.0"?>
<VTKFile type="StructuredGrid" version="0.1">
    <StructuredGrid WholeExtent="0 100 0 100 0 0">
        <Piece Extent="0 100 0 100 0 0">
            <Points>
                <DataArray type="Float64" NumberOfComponents="3" format="ascii">
-15 -15 0
-15 -14.7 0
-15 -14.4 0
-15 -14.1 0
-15 -13.8 0
-15 -13.5 0
-15 -13.2 0
-15 -12.9 0
-15 -12.6 0
-15 -12.3 0
-15 -12 0
-15 -11.7 0
-15 -11.4 0
-15 -11.1 0
-15 -10.8 0
-15 -10.5 0
-15 -10.2 0
-15 -9.9 0
-15 -9.6 0
-15 -9.3 0
-15 -9 0
-15 -8.7 0
-15 -8.4 0
-15 -8.1 0
-15 -7.8 0
-15 -7.5 0
-15 -7.2 0
-15 -6.9 0
-15 -6.6 0
-15 -6.3 0
-15 -6 0
-15 -5.7 0
-15 -5.4 0
-15 -5.1 0
-15 -4.8 0
-15 -4.5 0
-15 -4.2 0
-15 -3.9 0
-15 -3.6 0
-15 -3.3 0
-15 -3 0
-15 -2.7 0
-15 -2.4 0
-15 -2.1 0
-15 -1.8 0
-15 -1.5 0
-15 -1.2 0
-15 -0.9 0
-15 -0.6 0
-15 -0.3 0
-15 0 0
-15 0.3 0
-15 0.6 0
-15 0.9 0
-15 1.2 0
-15 1.5 0
-15 1.8 0
-15 2.1 0
-15 2.4 0
-15 2.7 0
-15 3 0
-15 3.3 0
-15 3.6 0
-15 3.9 0
-15 4.2 0
-15 4.5 0
-15 4.8 0
-15 5.1 0
-15 5.4 0
-15 5.7 0
-15 6 0
-15 6.3 0
-15 6.6 0
-15 6.9 0
-15 7.2 0
-15 7.5 0
-15 7.8 0
-15 8.1 0
-15 8.4 0
-15 8.7 0
-15 9 0
-15 9.3 0
-15 9.6 0
-15 9.9 0
-15 10.2 0
-15 10.5 0
-15 10.8 0
-15 11.1 0
-15 11.4 0
-15 11.7 0
-15 12 0
-15 12.3 0
-15 12.6 0
-15 12.9 0
-15 13.2 0
-15 13.5 0
-15 13.8 0
-15 14.1 0
-15 14.4 0
-15 14.7 0
-15 15 0
-14.7 -15 0
-14.7 -14.7 0
-14.7 -14.4 0
-14.7 -14.1 0
-14.7 -13.8 0
-14.7 -13.5 0
-14.7 -13.2 0
-14.7 -12.9 0
-14.7 -12.6 0
-14.7 -12.3 0
-14.7 -12 0
-14.7 -11.7 0
-14.7 -11.4 0
-14.7 -11.1 0
-14.7 -10.8 0
-14.7 -10.5 0
-14.7 -10.2 0
-14.7 -9.9 0
-14.7 -9.6 0
-14.7 -9.3 0
-14.7 -9 0
-14.7 -8.7 0
-14.7 -8.4 0
-14.7 -8.1 0
-14.7 -7.8 0
-14.7 -7.5 0
-14.7 -7.2 0
-14.7 -6.9 0
-14.7 -6.6 0
-14.7 -6.3 0
-14.7 -6 0
-14.7 -5.7 0
-14.7 -5.4 0
-14.7 -5.1 0
-14.7 -4.8 0
-14.7 -4.5 0
-14.7 -4.2 0
-14.7 -3.9 0
-14.7 -3.6 0
-14.7 -3.3 0
-14.7 -3 0
-14.7 -2.7 0
-14.7 -2.4 0
-14.7 -2.1 0
-14.7 -1.8 0
-14.7 -1.5 0
-14.7 -1.2 0
-14.7 -0.9 0
-14.7 -0.6 0
-14.7 -0.3 0
-14.7 0 0
-14.7 0.3 0
-14.7 0.6 0
-14.7 0.9 0
-14.7 1.2 0
-14.7 1.5 0
-14.7 1.8 0
-14.7 2.1 0
-14.7 2.4 0
-14.7 2.7 0
-14.7 3 0
-14.7 3.3 0
-14.7 3.6 0
-14.7 3.9 0
-14.7 4.2 0
-14.7 4.5 0
-14.7 4.8 0
-14.7 5.1 0
-14.7 5.4 0
-14.7 5.7 0
-14.7 6 0
-14.7 6.3 0
-14.7 6.6 0
-14.7 6.9 0
-14.7 7.2 0
-14.7 7.5 0
-14.7 7.8 0
-14.7 8.1 0
-14.7 8.4 0
-14.7 8.7 0
-14.7 9 0
-14.7 9.3 0
-14.7 9.6 0
-14.7 9.9 0
-14.7 10.2 0
-14.7 10.5 0
-14.7 10.8 0
-14.7 11.1 0
-14.7 11.4 0
-14.7 11.7 0
-14.7 12 0
-14.7 12.3 0
-14.7 12.6 0
-14.7 12.9 0
-14.7 13.2 0
-14.7 13.5 0
-14.7 13.8 0
-14.7 14.1 0
-14.7 14.4 0
-14.7 14.7 0
-14.7 15 0
-14.4 -15 0
-14.4 -14.7 0
-14.4 -14.4 0
-14.4 -14.1 0
-14.4 -13.8 0
-14.4 -13.5 0
-14.4 -13.2 0
-14.4 -12.9 0
-14.4 -12.6 0
-14.4 -12.3 0
-14.4 -12 0
-14.4 -11.7 0
-14.4 -11.4 0
-14.4 -11.1 0
-14.4 -10.8 0
-14.4 -10.5 0
-14.4 -10.2 0
-14.4 -9.9 0
-14.4 -9.6 0
-14.4 -9.3 0
-14.4 -9 0
-14.4 -8.7 0
-14.4 -8.4 0
-14.4 -8.1 0
-14.4 -7.8 0
-14.4 -7.5 0
-14.4 -7.2 0
-14.4 -6.9 0
-14.4 -6.6 0
-14.4 -6.3 0
-14.4 -6 0
-14.4 -5.7 0
-14.4 -5.4 0
-14.4 -5.1 0
-14.4 -4.8 0
-14.4 -4.5 0
-14.4 -4.2 0
-14.4 -3.9 0
-14.4 -3.6 0
-14.4 -3.3 0
-14.4 -3 0
-14.4 -2.7 0
-14.4 -2.4 0
-14.4 -2.1 0
-14.4 -1.8 0
-14.4 -1.5 0
-14.4 -1.2 0
-14.4 -0.9 0
-14.4 -0.6 0
-14.4 -0.3 0
-14.4 0 0
-14.4 0.3 0
-14.4 0.6 0
-14.4 0.9 0
-14.4 1.2 0
-14.4 1.5 0
-14.4 1.8 0
-14.4 2.1 0
-14.4 2.4 0
-14.4 2.7 0
-14.4 3 0
-14.4 3.3 0
-14.4 3.6 0
-14.4 3.9 0
-14.4 4.2 0
-14.4 4.5 0
-14.4 4.8 0
-14.4 5.1 0
-14.4 5.4 0
-14.4 5.7 0
-14.4 6 0
-14.4 6.3 0
-14.4 6.6 0
-14.4 6.9 0
-14.4 7.2 0
-14.4 7.5 0
-14.4 7.8 0
-14.4 8.1 0
-14.4 8.4 0
-14.4 8.7 0
-14.4 9 0
-14.4 9.3 0
-14.4 9.6 0
-14.4 9.9 0
-14.4 10.2 0
-14.4 10.5 0
-14.4 10.8 0
-14.4 11.1 0
-14.4 11.4 0
-14.4 11.7 0
-14.4 12 0
-14.4 12.3 0
-14.4 12.6 0
-14.4 12.9 0
-14.4 13.2 0
-14.4 13.5 0
-14.4 13.8 0
-14.4 14.1 0
-14.4 14.4 0
-14.4 14.7 0
-14.4 15 0
-14.1 -15 0
-14.1 -14.7 0
-14.1 -14.4 0
-14.1 -14.1 0
-14.1 -13.8 0
-14.1 -13.5 0
-14.1 -13.2 0
-14.1 -12.9 0
-14.1 -12.6 0
-14.1 -12.3 0
-14.1 -12 0
-14.1 -11.7 0
-14.1 -11.4 0
-14.1 -11.1 0
-14.1 -10.8 0
-14.1 -10.5 0
-14.1 -10.2 0
-14.1 -9.9 0
-14.1 -9.6 0
-14.1 -9.3 0
-14.1 -9 0
-14.1 -8.7 0
-14.1 -8.4 0
-14.1 -8.1 0
-14.1 -7.8 0
-14.1 -7.5 0
-14.1 -7.2 0
-14.1 -6.9 0
-14.1 -6.6 0
-14.1 -6.3 0
-14.1 -6 0
-14.1 -5.7 0
-14.1 -5.4 0
-14.1 -5.1 0
-14.1 -4.8 0
-14.1 -4.5 0
-14.1 -4.2 0
-14.1 -3.9 0
-14.1 -3.6 0
-14.1 -3.3 0
-14.1 -3 0
-14.1 -2.7 0
-14.1 -2.4 0
-14.1 -2.1 0
-14.1 -1.8 0
-14.1 -1.5 0
-14.1 -1.2 0
-14.1 -0.9 0
-14.1 -0.6 0
-14.1 -0.3 0
-14.1 0 0
-14.1 0.3 0
-14.1 0.6 0
-14.1 0.9 0
-14.1 1.2 0
-14.1 1.5 0
-14.1 1.8 0
-14.1 2.1 0
-14.1 2.4 0
-14.1 2.7 0
-14.1 3 0
-14.1 3.3 0
-14.1 3.6 0
-14.1 3.9 0
-14.1 4.2 0
-14.1 4.5 0
-14.1 4.8 0
-14.1 5.1 0
-14.1 5.4 0
-14.1 5.7 0
-14.1 6 0
-14.1 6.3 0
-14.1 6.6 0
-14.1 6.9 0
-14.1 7.2 0
-14.1 7.5 0
-14.1 7.8 0
-14.1 8.1 0
-14.1 8.4 0
-14.1 8.7 0
-14.1 9 0
-14.1 9.3 0
-14.1 9.6 0
-14.1 9.9 0
-14.1 10.2 0
-14.1 10.5 0
-14.1 10.8 0
-14.1 11.1 0
-14.1 11.4 0
-14.1 11.7 0
-14.1 12 0
-14.1 12.3 0
-14.1 12.6 0
-14.1 12.9 0
-14.1 13.2 0
-14.1 13.5 0
-14.1 13.8 0
-14.1 14.1 0
-14.1 14.4 0
-14.1 14.7 0
-14.1 15 0
-13.8 -15 0
-13.8 -14.7 0
-13.8 -14.4 0
-13.8 -14.1 0
-13.8 -13.8 0
-13.8 -13.5 0
-13.8 -13.2 0
-13.8 -12.9 0
-13.8 -12.6 0
-13.8 -12.3 0
-13.8 -12 0
-13.8 -11.7 0
-13.8 -11.4 0
-13.8 -11.1 0
-13.8 -10.8 0
-13.8 -10.5 0
-13.8 -10.2 0
-13.8 -9.9 0
-13.8 -9.6 0
-13.8 -9.3 0
-13.8 -9 0
-13.8 -8.7 0
-13.8 -8.4 0
-13.8 -8.1 0
-13.8 -7.8 0
-13.8 -7.5 0
-13.8 -7.2 0
-13.8 -6.9 0
-13.8 -6.6 0
-13.8 -6.3 0
-13.8 -6 0
-13.8 -5.7 0
-13.8 -5.4 0
-13.8 -5.1 0
-13.8 -4.8 0
-13.8 -4.5 0
-13.8 -4.2 0
-13.8 -3.9 0
-13.8 -3.6 0
-13.8 -3.3 0
-13.8 -3 0
-13.8 -2.7 0
-13.8 -2.4 0
-13.8 -2.1 0
-13.8 -1.8 0
-13.8 -1.5 0
-13.8 -1.2 0
-13.8 -0.9 0
-13.8 -0.6 0
-13.8 -0.3 0
-13.8 0 0
-13.8 0.3 0
-13.8 0.6 0
-13.8 0.9 0
-13.8 1.2 0
-13.8 1.5 0
-13.8 1.8 0
-13.8 2.1 0
-13.8 2.4 0
-13.8 2.7 0
-13.8 3 0
-13.8 3.3 0
-13.8 3.6 0
-13.8 3.9 0
-13.8 4.2 0
-13.8 4.5 0
-13.8 4.8 0
-13.8 5.1 0
-13.8 5.4 0
-13.8 5.7 0
-13.8 6 0
-13.8 6.3 0
-13.8 6.6 0
-13.8 6.9 0
-13.8 7.2 0
-13.8 7.5 0
-13.8 7.8 0
-13.8 8.1 0
-13.8 8.4 0
-13.8 8.7 0
-13.8 9 0
-13.8 9.3 0
-13.8 9.6 0
-13.8 9.9 0
-13.8 10.2 0
-13.8 10.5 0
-13.8 10.8 0
-13.8 11.1 0
-13.8 11.4 0
-13.8 11.7 0
-13.8 12 0
-13.8 12.3 0
-13.8 12.6 0
-13.8 12.9 0
-13.8 13.2 0
-13.8 13.5 0
-13.8 13.8 0
-13.8 14.1 0
-13.8 14.4 0
-13.8 14.7 0
-13.8 15 0
-13.5 -15 0
-13.5 -14.7 0
-13.5 -14.4 0
-13.5 -14.1 0
-13.5 -13.8 0
-13.5 -13.5 0
-13.5 -13.2 0
-13.5 -12.9 0
-13.5 -12.6 0
-13.5 -12.3 0
-13.5 -12 0
-13.5 -11.7 0
-13.5 -11.4 0
-13.5 -11.1 0
-13.5 -10.8 0
-13.5 -10.5 0
-13.5 -10.2 0
-13.5 -9.9 0
-13.5 -9.6 0
-13.5 -9.3 0
-13.5 -9 0
-13.5 -8.7 0
-13.5 -8.4 0
-13.5 -8.1 0
-13.5 -7.8 0
-13.5 -7.5 0
-13.5 -7.2 0
-13.5 -6.9 0
-13.5 -6.6 0
-13.5 -6.3 0
-13.5 -6 0
-13.5 -5.7 0
-13.5 -5.4 0
-13.5 -5.1 0
-13.5 -4.8 0
-13.5 -4.5 0
-13.5 -4.2 0
-13.5 -3.9 0
-13.5 -3.6 0
-13.5 -3.3 0
-13.5 -3 0
-13.5 -2.7 0
-13.5 -2.4 0
-13.5 -2.1 0
-13.5 -1.8 0
-13.5 -1.5 0
-13.5 -1.2 0
-13.5 -0.9 0
-13.5 -0.6 0
-13.5 -0.3 0
-13.5 0 0
-13.5 0.3 0
-13.5 0.6 0
-13.5 0.9 0
-13.5 1.2 0
-13.5 1.5 0
-13.5 1.8 0
-13.5 2.1 0
-13.5 2.4 0
-13.5 2.7 0
-13.5 3 0
-13.5 3.3 0
-13.5 3.6 0
-13.5 3.9 0
-13.5 4.2 0
-13.5 4.5 0
-13.5 4.8 0
-13.5 5.1 0
-13.5 5.4 0
-13.5 5.7 0
-13.5 6 0
-13.5 6.3 0
-13.5 6.6 0
-13.5 6.9 0
-13.5 7.2 0
-13.5 7.5 0
-13.5 7.8 0
-13.5 8.1 0
-13.5 8.4 0
-13.5 8.7 0
-13.5 9 0
-13.5 9.3 0
-13.5 9.6 0
-13.5 9.9 0
-13.5 10.2 0
-13.5 10.5 0
-13.5 10.8 0
-13.5 11.1 0
-13.5 11.4 0
-13.5 11.7 0
-13.5 12 0
-13.5 12.3 0
-13.5 12.6 0
-13.5 12.9 0
-13.5 13.2 0
-13.5 13.5 0
-13.5 13.8 0
-13.5 14.1 0
-13.5 14.4 0
-13.5 14.7 0
-13.5 15 0
-13.2 -15 0
-13.2 -14.7 0
-13.2 -14.4 0
-13.2 -14.1 0
-13.2 -13.8 0
-13.2 -13.5 0
-13.2 -13.2 0
-13.2 -12.9 0
-13.2 -12.6 0
-13.2 -12.3 0
-13.2 -12 0
-13.2 -11.7 0
-13.2 -11.4 0
-13.2 -11.1 0
-13.2 -10.8 0
-13.2 -10.5 0
-13.2 -10.2 0
-13.2 -9.9 0
-13.2 -9.6 0
-13.2 -9.3 0
-13.2 -9 0
-13.2 -8.7 0
-13.2 -8.4 0
-13.2 -8.1 0
-13.2 -7.8 0
-13.2 -7.5 0
-13.2 -7.2 0
-13.2 -6.9 0
-13.2 -6.6 0
-13.2 -6.3 0
-13.2 -6 0
-13.2 -5.7 0
-13.2 -5.4 0
-13.2 -5.1 0
-13.2 -4.8 0
-13.2 -4.5 0
-13.2 -4.2 0
-13.2 -3.9 0
-13.2 -3.6 0
-13.2 -3.3 0
-13.2 -3 0
-13.2 -2.7 0
-13.2 -2.4 0
-13.2 -2.1 0
-13.2 -1.8 0
-13.2 -1.5 0
-13.2 -1.2 0
-13.2 -0.9 0
-13.2 -0.6 0
-13.2 -0.3 0
-13.2 0 0
-13.2 0.3 0
-13.2 0.6 0
-13.2 0.9 0
-13.2 1.2 0
-13.2 1.5 0
-13.2 1.8 0
-13.2 2.1 0
-13.2 2.4 0
-13.2 2.7 0
-13.2 3 0
-13.2 3.3 0
-13.2 3.6 0
-13.2 3.9 0
-13.2 4.2 0
-13.2 4.5 0
-13.2 4.8 0
-13.2 5.1 0
-13.2 5.4 0
-13.2 5.7 0
-13.2 6 0
-13.2 6.3 0
-13.2 6.6 0
-13.2 6.9 0
-13.2 7.2 0
-13.2 7.5 0
-13.2 7.8 0
-13.2 8.1 0
-13.2 8.4 0
-13.2 8.7 0
-13.2 9 0
-13.2 9.3 0
-13.2 9.6 0
-13.2 9.9 0
-13.2 10.2 0
-13.2 10.5 0
-13.2 10.8 0
-13.2 11.1 0
-13.2 11.4 0
-13.2 11.7 0
-13.2 12 0
-13.2 12.3 0
-13.2 12.6 0
-13.2 12.9 0
-13.2 13.2 0
-13.2 13.5 0
-13.2 13.8 0
-13.2 14.1 0
-13.2 14.4 0
-13.2 14.7 0
-13.2 15 0
-12.9 -15 0
-12.9 -14.7 0
-12.9 -14.4 0
-12.9 -14.1 0
-12.9 -13.8 0
-12.9 -13.5 0
-12.9 -13.2 0
-12.9 -12.9 0
-12.9 -12.6 0
-12.9 -12.3 0
-12.9 -12 0
-12.9 -11.7 0
-12.9 -11.4 0
-12.9 -11.1 0
-12.9 -10.8 0
-12.9 -10.5 0
-12.9 -10.2 0
-12.9 -9.9 0
-12.9 -9.6 0
-12.9 -9.3 0
-12.9 -9 0
-12.9 -8.7 0
-12.9 -8.4 0
-12.9 -8.1 0
-12.9 -7.8 0
-12.9 -7.5 0
-12.9 -7.2 0
-12.9 -6.9 0
-12.9 -6.6 0
-12.9 -6.3 0
-12.9 -6 0
-12.9 -5.7 0
-12.9 -5.4 0
-12.9 -5.1 0
-12.9 -4.8 0
-12.9 -4.5 0
-12.9 -4.2 0
-12.9 -3.9 0
-12.9 -3.6 0
-12.9 -3.3 0
-12.9 -3 0
-12.9 -2.7 0
-12.9 -2.4 0
-12.9 -2.1 0
-12.9 -1.8 0
-12.9 -1.5 0
-12.9 -1.2 0
-12.9 -0.9 0
-12.9 -0.6 0
-12.9 -0.3 0
-12.9 0 0
-12.9 0.3 0
-12.9 0.6 0
-12.9 0.9 0
-12.9 1.2 0
-12.9 1.5 0
-12.9 1.8 0
-12.9 2.1 0
-12.9 2.4 0
-12.9 2.7 0
-12.9 3 0
-12.9 3.3 0
-12.9 3.6 0
-12.9 3.9 0
-12.9 4.2 0
-12.9 4.5 0
-12.9 4.8 0
-12.9 5.1 0
-12.9 5.4 0
-12.9 5.7 0
-12.9 6 0
-12.9 6.3 0
-12.9 6.6 0
-12.9 6.9 0
-12.9 7.2 0
-12.9 7.5 0
-12.9 7.8 0
-12.9 8.1 0
-12.9 8.4 0
-12.9 8.7 0
-12.9 9 0
[...]
            <PointData>
                <DataArray type="Float64" Name="c1" format="ascii">
0.00080809 0.000809092 0.000812097 0.000817104 0.000824107 0.000833099 0.000844072 0.000857015 0.000871913 0.00088875 0.000907506 0.000928157 0.000950676 0.000975028 0.00100118 0.00102908 0.00105869 0.00108995 0.0011228 0.00115717 0.00119298 0.00123015 0.00126858 0.00130817 0.00134881 0.00139038 0.00143274 0.00147577 0.0015193 0.00156318 0.00160725 0.00165133 0.00169525 0.00173881 0.00178182 0.00182409 0.00186541 0.00190559 0.00194442 0.00198171 0.00201725 0.00205085 0.00208233 0.0021115 0.00213822 0.0021623 0.00218363 0.00220206 0.00221749 0.00222983 0.002239 0.00224495 0.00224765 0.00224708 0.00224326 0.00223621 0.00222599 0.00221266 0.00219632 0.00217707 0.00215505 0.00213039 0.00210325 0.00207381 0.00204223 0.00200871 0.00197344 0.00193664 0.0018985 0.00185923 0.00181905 0.00177816 0.00173677 0.00169509 0.0016533 0.0016116 0.00157018 0.00152921 0.00148887 0.00144931 0.00141069 0.00137315 0.00133682 0.00130183 0.00126829 0.00123631 0.00120598 0.0011774 0.00115064 0.00112578 0.00110289 0.00108201 0.0010632 0.0010465 0.00103196 0.0010196 0.00100945 0.00100154 0.000995872 0.000992469 0.000991333 
0.000808925 0.00080993 0.000812944 0.000817964 0.000824986 0.000834002 0.000845005 0.000857984 0.000872923 0.000889808 0.000908617 0.000929326 0.00095191 0.000976334 0.00100256 0.00103055 0.00106025 0.00109161 0.00112456 0.00115904 0.00119497 0.00123226 0.00127081 0.00131054 0.00135132 0.00139303 0.00143555 0.00147873 0.00152242 0.00156647 0.00161071 0.00165496 0.00169905 0.00174278 0.00178597 0.00182841 0.00186991 0.00191026 0.00194925 0.0019867 0.00202239 0.00205614 0.00208776 0.00211707 0.00214391 0.00216811 0.00218953 0.00220805 0.00222355 0.00223594 0.00224516 0.00225113 0.00225384 0.00225327 0.00224943 0.00224234 0.00223207 0.00221868 0.00220226 0.00218292 0.00216079 0.00213602 0.00210875 0.00207917 0.00204744 0.00201377 0.00197835 0.00194138 0.00190307 0.00186364 0.00182329 0.00178222 0.00174066 0.0016988 0.00165685 0.00161498 0.0015734 0.00153227 0.00149177 0.00145207 0.0014133 0.00137562 0.00133916 0.00130405 0.00127039 0.0012383 0.00120787 0.00117919 0.00115234 0.0011274 0.00110443 0.00108348 0.00106461 0.00104786 0.00103327 0.00102088 0.0010107 0.00100276 0.000997075 0.000993661 0.000992522 
0.00081143 0.000812443 0.000815481 0.000820542 0.00082762 0.00083671 0.000847803 0.000860888 0.000875952 0.000892977 0.000911945 0.000932832 0.00095561 0.000980247 0.00100671 0.00103495 0.00106492 0.00109656 0.00112983 0.00116463 0.00120091 0.00123856 0.00127751 0.00131764 0.00135884 0.00140099 0.00144396 0.00148761 0.00153179 0.00157633 0.00162107 0.00166584 0.00171045 0.00175471 0.00179842 0.00184139 0.0018834 0.00192426 0.00196376 0.00200169 0.00203786 0.00207206 0.0021041 0.00213381 0.002161 0.00218553 0.00220725 0.00222603 0.00224174 0.00225431 0.00226365 0.00226971 0.00227245 0.00227187 0.00226796 0.00226077 0.00225035 0.00223676 0.0022201 0.00220049 0.00217804 0.00215292 0.00212527 0.00209527 0.00206311 0.00202898 0.00199308 0.00195562 0.00191681 0.00187687 0.001836 0.00179442 0.00175234 0.00170996 0.0016675 0.00162513 0.00158306 0.00154145 0.00150049 0.00146034 0.00142114 0.00138305 0.00134619 0.0013107 0.00127669 0.00124427 0.00121353 0.00118456 0.00115744 0.00113226 0.00110906 0.00108791 0.00106886 0.00105195 0.00103722 0.0010247 0.00101443 0.00100642 0.00100068 0.000997235 0.000996086 
0.0008156 0.000816626 0.000819704 0.000824832 0.000832005 0.000841217 0.00085246 0.000865723 0.000880993 0.000898254 0.000917487 0.000938668 0.000961771 0.000986765 0.00101361 0.00104227 0.00107269 0.00110482 0.0011386 0.00117396 0.00121081 0.00124908 0.00128867 0.00132947 0.00137138 0.00141426 0.00145799 0.00150243 0.00154741 0.00159278 0.00163837 0.001684 0.00172948 0.00177461 0.0018192 0.00186305 0.00190593 0.00194765 0.00198799 0.00202673 0.00206368 0.00209863 0.00213139 0.00216176 0.00218957 0.00221466 0.00223687 0.00225607 0.00227215 0.002285 0.00229456 0.00230075 0.00230355 0.00230294 0.00229894 0.00229157 0.00228089 0.00226697 0.00224992 0.00222984 0.00220686 0.00218115 0.00215286 0.00212218 0.00208929 0.00205439 0.00201769 0.00197941 0.00193976 0.00189895 0.00185722 0.00181477 0.00177182 0.00172858 0.00168527 0.00164206 0.00159917 0.00155677 0.00151503 0.00147413 0.00143421 0.00139543 0.00135792 0.0013218 0.0012872 0.00125422 0.00122296 0.0011935 0.00116594 0.00114034 0.00111677 0.00109528 0.00107592 0.00105875 0.00104379 0.00103108 0.00102064 0.00101251 0.00100668 0.00100318 0.00100202 
0.000821423 0.000822468 0.000825603 0.000830825 0.000838131 0.000847514 0.000858967 0.000872479 0.000888038 0.000905629 0.000925233 0.000946827 0.000970386 0.000995878 0.00102327 0.00105251 0.00108357 0.00111638 0.00115088 0.001187 0.00122467 0.0012638 0.0013043 0.00134605 0.00138894 0.00143286 0.00147766 0.00152319 0.00156931 0.00161585 0.00166263 0.00170947 0.00175617 0.00180254 0.00184837 0.00189344 0.00193755 0.00198048 0.002022 0.0020619 0.00209995 0.00213597 0.00216972 0.00220103 0.00222971 0.00225558 0.0022785 0.00229831 0.00231489 0.00232815 0.00233801 0.00234439 0.00234727 0.00234663 0.00234249 0.00233487 0.00232382 0.00230944 0.00229182 0.00227108 0.00224736 0.00222082 0.00219163 0.00215997 0.00212605 0.00209007 0.00205225 0.0020128 0.00197196 0.00192994 0.00188699 0.00184332 0.00179915 0.0017547 0.00171018 0.0016658 0.00162175 0.00157823 0.0015354 0.00149345 0.00145252 0.00141277 0.00137433 0.00133734 0.0013019 0.00126814 0.00123615 0.00120602 0.00117782 0.00115165 0.00112754 0.00110558 0.0010858 0.00106825 0.00105297 0.00103998 0.00102933 0.00102102 0.00101507 0.0010115 0.00101031 
0.000828886 0.000829956 0.000833164 0.000838507 0.000845983 0.000855586 0.000867309 0.000881142 0.000897073 0.000915088 0.00093517 0.000957296 0.000981441 0.00100758 0.00103567 0.00106567 0.00109754 0.00113122 0.00116665 0.00120377 0.00124249 0.00128273 0.00132439 0.00136736 0.00141154 0.00145678 0.00150296 0.00154992 0.00159751 0.00164556 0.00169388 0.00174228 0.00179057 0.00183854 0.00188597 0.00193265 0.00197835 0.00202284 0.0020659 0.00210729 0.00214679 0.00218418 0.00221924 0.00225177 0.00228157 0.00230847 0.00233229 0.0023529 0.00237015 0.00238394 0.00239418 0.00240081 0.0024038 0.00240312 0.00239879 0.00239084 0.00237933 0.00236434 0.00234599 0.00232439 0.0022997 0.00227208 0.00224171 0.00220878 0.00217352 0.00213613 0.00209684 0.00205589 0.0020135 0.00196992 0.00192538 0.00188012 0.00183437 0.00178835 0.00174228 0.00169637 0.00165083 0.00160586 0.00156162 0.00151831 0.00147607 0.00143506 0.00139543 0.00135731 0.0013208 0.00128603 0.0012531 0.00122209 0.00119308 0.00116616 0.00114138 0.0011188 0.00109847 0.00108044 0.00106474 0.00105141 0.00104046 0.00103193 0.00102583 0.00102216 0.00102093 
0.000837973 0.000839072 0.000842369 0.000847861 0.000855545 0.000865417 0.00087747 0.000891695 0.000908082 0.000926616 0.000947281 0.000970058 0.000994921 0.00102184 0.00105079 0.00108172 0.00111459 0.00114934 0.00118592 0.00122425 0.00126426 0.00130586 0.00134895 0.00139343 0.00143917 0.00148605 0.00153393 0.00158265 0.00163205 0.00168195 0.00173216 0.0017825 0.00183275 0.00188269 0.00193211 0.00198076 0.00202843 0.00207486 0.00211981 0.00216305 0.00220434 0.00224343 0.00228011 0.00231416 0.00234536 0.00237352 0.00239848 0.00242006 0.00243813 0.00245258 0.00246331 0.00247025 0.00247337 0.00247264 0.00246808 0.00245972 0.00244762 0.00243189 0.00241262 0.00238996 0.00236406 0.0023351 0.00230327 0.00226878 0.00223185 0.00219272 0.00215162 0.00210879 0.0020645 0.00201898 0.00197248 0.00192526 0.00187755 0.00182959 0.00178161 0.00173382 0.00168644 0.00163968 0.00159371 0.00154872 0.00150487 0.00146233 0.00142123 0.00138171 0.00134389 0.00130788 0.00127379 0.0012417 0.00121171 0.00118387 0.00115825 0.00113492 0.00111393 0.00109531 0.0010791 0.00106533 0.00105403 0.00104523 0.00103893 0.00103514 0.00103388 
0.000848661 0.000849795 0.000853197 0.000858864 0.000866795 0.000876985 0.000889428 0.000904117 0.000921041 0.00094019 0.000961546 0.000985093 0.00101081 0.00103866 0.00106862 0.00110065 0.0011347 0.00117072 0.00120865 0.00124843 0.00128997 0.00133319 0.00137798 0.00142424 0.00147186 0.00152068 0.00157058 0.00162139 0.00167294 0.00172506 0.00177754 0.00183018 0.00188277 0.00193507 0.00198686 0.00203789 0.00208791 0.00213666 0.0021839 0.00222935 0.00227278 0.00231393 0.00235255 0.00238842 0.0024213 0.00245099 0.00247731 0.00250007 0.00251914 0.00253438 0.00254569 0.00255301 0.00255628 0.00255548 0.00255064 0.00254179 0.00252899 0.00251235 0.00249198 0.00246804 0.00244069 0.00241011 0.00237653 0.00234015 0.00230123 0.00226 0.00221672 0.00217166 0.00212507 0.00207723 0.00202839 0.00197882 0.00192877 0.00187849 0.00182822 0.00177819 0.00172862 0.00167971 0.00163168 0.00158469 0.00153893 0.00149455 0.00145171 0.00141053 0.00137115 0.00133368 0.00129821 0.00126485 0.00123367 0.00120475 0.00117815 0.00115393 0.00113213 0.00111281 0.001096 0.00108172 0.00107001 0.00106088 0.00105435 0.00105042 0.00104911 
0.000860924 0.000862098 0.000865621 0.000871491 0.000879707 0.000890263 0.000903157 0.000918381 0.000935927 0.000955784 0.00097794 0.00100238 0.00102907 0.001058 0.00108913 0.00112243 0.00115785 0.00119534 0.00123485 0.0012763 0.00131961 0.0013647 0.00141148 0.00145982 0.0015096 0.00156069 0.00161294 0.00166619 0.00172025 0.00177495 0.00183007 0.00188541 0.00194073 0.00199579 0.00205036 0.00210416 0.00215694 0.00220842 0.00225833 0.00230639 0.00235234 0.0023959 0.00243681 0.00247481 0.00250968 0.00254117 0.00256909 0.00259325 0.00261349 0.00262966 0.00264167 0.00264942 0.00265287 0.00265201 0.00264683 0.0026374 0.00262377 0.00260606 0.0025844 0.00255894 0.00252987 0.00249739 0.00246174 0.00242315 0.00238187 0.00233818 0.00229234 0.00224465 0.00219537 0.0021448 0.00209322 0.0020409 0.00198811 0.00193512 0.00188218 0.00182953 0.00177739 0.001726 0.00167556 0.00162625 0.00157826 0.00153175 0.00148688 0.00144378 0.00140258 0.0013634 0.00132634 0.0012915 0.00125895 0.00122877 0.00120103 0.00117578 0.00115306 0.00113293 0.00111542 0.00110055 0.00108836 0.00107885 0.00107205 0.00106797 0.00106661 
0.000874731 0.000875952 0.000879612 0.000885711 0.000894249 0.000905221 0.000918625 0.000934456 0.000952707 0.000973369 0.00099643 0.00102188 0.00104969 0.00107984 0.0011123 0.00114705 0.00118402 0.00122319 0.00126448 0.00130784 0.00135317 0.00140041 0.00144943 0.00150014 0.0015524 0.00160608 0.00166103 0.00171706 0.00177401 0.00183166 0.00188982 0.00194825 0.00200672 0.00206496 0.00212272 0.00217972 0.00223568 0.00229031 0.00234331 0.00239439 0.00244325 0.00248961 0.00253317 0.00257366 0.00261082 0.00264441 0.00267419 0.00269997 0.00272157 0.00273883 0.00275164 0.0027599 0.00276357 0.00276262 0.00275706 0.00274695 0.00273235 0.0027134 0.00269022 0.00266301 0.00263194 0.00259726 0.0025592 0.00251804 0.00247403 0.00242749 0.00237869 0.00232795 0.00227557 0.00222186 0.00216711 0.00211162 0.00205568 0.00199957 0.00194355 0.00188789 0.00183282 0.00177858 0.00172537 0.0016734 0.00162286 0.00157391 0.00152672 0.00148143 0.00143816 0.00139703 0.00135816 0.00132162 0.00128752 0.00125591 0.00122686 0.00120044 0.00117668 0.00115563 0.00113732 0.00112178 0.00110904 0.00109911 0.00109201 0.00108774 0.00108632 
0.000890048 0.00089132 0.000895133 0.000901489 0.000910386 0.000921824 0.000935798 0.000952308 0.000971347 0.000992908 0.00101698 0.00104356 0.00107262 0.00110414 0.0011381 0.00117446 0.00121318 0.00125423 0.00129753 0.00134302 0.00139064 0.00144027 0.00149184 0.00154522 0.00160028 0.00165688 0.00171486 0.00177405 0.00183426 0.00189527 0.00195686 0.00201881 0.00208084 0.0021427 0.0022041 0.00226474 0.00232433 0.00238255 0.00243909 0.00249362 0.00254582 0.00259537 0.00264197 0.00268532 0.00272512 0.00276111 0.00279303 0.00282068 0.00284384 0.00286235 0.00287608 0.00288493 0.00288885 0.00288779 0.00288179 0.00287089 0.00285519 0.0028348 0.00280988 0.00278064 0.00274729 0.00271007 0.00266926 0.00262513 0.00257801 0.00252819 0.00247601 0.00242179 0.00236587 0.00230856 0.0022502 0.00219111 0.00213158 0.00207192 0.00201242 0.00195334 0.00189494 0.00183746 0.00178113 0.00172616 0.00167274 0.00162104 0.00157123 0.00152346 0.00147786 0.00143454 0.00139363 0.0013552 0.00131934 0.00128612 0.00125562 0.00122788 0.00120294 0.00118086 0.00116166 0.00114537 0.00113201 0.00112161 0.00111417 0.0011097 0.00110821 
0.000906835 0.000908162 0.000912146 0.000918785 0.000928079 0.00094003 0.000954635 0.000971894 0.000991804 0.00101436 0.00103956 0.00106738 0.00109782 0.00113086 0.00116647 0.00120463 0.0012453 0.00128842 0.00133395 0.00138183 0.00143197 0.00148429 0.00153868 0.00159504 0.00165322 0.00171309 0.00177447 0.00183719 0.00190104 0.00196581 0.00203127 0.00209716 0.00216322 0.00222914 0.00229465 0.00235941 0.0024231 0.00248538 0.00254592 0.00260435 0.00266034 0.00271353 0.00276359 0.00281018 0.00285299 0.00289171 0.00292609 0.00295585 0.0029808 0.00300074 0.00301553 0.00302505 0.00302924 0.00302807 0.00302156 0.00300976 0.00299278 0.00297076 0.00294386 0.00291231 0.00287634 0.00283623 0.00279228 0.00274479 0.00269412 0.00264059 0.00258457 0.00252641 0.00246647 0.0024051 0.00234266 0.0022795 0.00221593 0.00215228 0.00208885 0.00202593 0.00196379 0.00190269 0.00184286 0.00178453 0.00172788 0.00167311 0.00162039 0.00156986 0.00152165 0.0014759 0.00143271 0.00139217 0.00135436 0.00131937 0.00128724 0.00125804 0.0012318 0.00120858 0.00118839 0.00117127 0.00115723 0.0011463 0.00113848 0.00113378 0.00113222 
0.000925046 0.000926435 0.000930604 0.000937552 0.000947282 0.000959794 0.000975089 0.000993169 0.00101403 0.00103768 0.0010641 0.0010933 0.00112526 0.00115996 0.00119739 0.00123752 0.00128031 0.00132573 0.00137372 0.00142422 0.00147715 0.00153242 0.00158994 0.00164959 0.00171123 0.00177471 0.00183986 0.00190649 0.0019744 0.00204336 0.00211312 0.00218342 0.00225396 0.00232443 0.00239453 0.0024639 0.00253219 0.00259905 0.00266408 0.00272692 0.00278718 0.00284448 0.00289844 0.0029487 0.00299491 0.00303674 0.00307388 0.00310606 0.00313304 0.0031546 0.00317058 0.00318086 0.00318537 0.00318407 0.00317698 0.00316416 0.00314573 0.00312184 0.00309269 0.00305851 0.00301958 0.0029762 0.00292869 0.00287741 0.00282272 0.002765 0.00270465 0.00264205 0.00257759 0.00251167 0.00244466 0.00237693 0.00230884 0.00224073 0.00217292 0.00210572 0.00203942 0.00197429 0.00191058 0.00184851 0.00178829 0.00173012 0.00167416 0.00162058 0.00156951 0.00152106 0.00147536 0.0014325 0.00139255 0.00135559 0.00132168 0.00129087 0.0012632 0.00123872 0.00121745 0.00119941 0.00118463 0.00117311 0.00116488 0.00115994 0.00115829 
0.000944631 0.000946087 0.000950457 0.000957741 0.000967943 0.000981064 0.000997109 0.00101608 0.00103798 0.00106281 0.00109057 0.00112126 0.00115486 0.00119138 0.00123079 0.00127307 0.00131819 0.00136611 0.00141678 0.00147014 0.00152612 0.00158464 0.00164558 0.00170884 0.00177428 0.00184173 0.00191104 0.00198199 0.00205438 0.00212797 0.00220249 0.00227766 0.00235318 0.00242872 0.00250393 0.00257844 0.00265187 0.00272383 0.0027939 0.00286167 0.00292672 0.00298863 0.00304699 0.00310138 0.00315143 0.00319676 0.00323703 0.00327193 0.0033012 0.00332459 0.00334193 0.00335307 0.00335793 0.00335648 0.00334872 0.00333475 0.00331468 0.00328868 0.00325698 0.00321983 0.00317756 0.00313048 0.00307896 0.0030234 0.0029642 0.00290178 0.00283657 0.002769 0.0026995 0.00262848 0.00255637 0.00248356 0.00241044 0.00233737 0.00226471 0.00219277 0.00212187 0.00205228 0.00198428 0.00191809 0.00185394 0.00179203 0.00173252 0.00167559 0.00162137 0.00156998 0.00152153 0.00147612 0.00143383 0.00139473 0.00135887 0.0013263 0.00129708 0.00127122 0.00124877 0.00122973 0.00121414 0.001202 0.00119332 0.0011881 0.00118637 
0.000965535 0.000967063 0.00097165 0.000979296 0.000990006 0.00100378 0.00102064 0.00104057 0.00106359 0.0010897 0.0011189 0.00115119 0.00118658 0.00122506 0.00126661 0.00131122 0.00135885 0.00140949 0.00146307 0.00151955 0.00157885 0.00164089 0.00170557 0.00177277 0.00184235 0.00191416 0.00198801 0.0020637 0.00214101 0.00221968 0.00229945 0.00238 0.00246102 0.00254215 0.00262302 0.00270324 0.00278238 0.00286002 0.00293571 0.00300899 0.0030794 0.00314647 0.00320975 0.00326878 0.00332313 0.0033724 0.00341619 0.00345417 0.00348601 0.00351147 0.00353033 0.00354244 0.0035477 0.00354607 0.00353757 0.00352229 0.00350036 0.00347198 0.0034374 0.00339691 0.00335086 0.00329963 0.00324361 0.00318325 0.003119 0.00305132 0.00298068 0.00290756 0.00283244 0.00275576 0.00267799 0.00259954 0.00252085 0.00244231 0.00236428 0.00228712 0.00221115 0.00213668 0.00206396 0.00199327 0.00192481 0.0018588 0.00179542 0.00173484 0.00167718 0.00162258 0.00157115 0.00152297 0.00147814 0.0014367 0.00139873 0.00136427 0.00133335 0.00130602 0.00128228 0.00126217 0.00124569 0.00123287 0.0012237 0.0012182 0.00121637 
0.000987697 0.000989303 0.000994121 0.00100215 0.00101341 0.00102789 0.00104561 0.00106657 0.00109079 0.00111827 0.00114902 0.00118304 0.00122034 0.00126093 0.00130478 0.00135189 0.00140224 0.0014558 0.00151253 0.00157237 0.00163526 0.00170112 0.00176985 0.00184133 0.00191541 0.00199195 0.00207076 0.00215162 0.0022343 0.00231855 0.00240406 0.00249052 0.00257759 0.00266489 0.00275201 0.00283853 0.00292399 0.00300794 0.00308986 0.00316927 0.00324566 0.00331849 0.00338728 0.0034515 0.00351069 0.00356437 0.00361212 0.00365354 0.0036883 0.00371608 0.00373666 0.00374986 0.00375556 0.00375373 0.00374438 0.00372761 0.00370359 0.00367252 0.0036347 0.00359045 0.00354017 0.00348426 0.0034232 0.00335747 0.00328757 0.00321402 0.00313734 0.00305806 0.00297669 0.00289373 0.00280969 0.00272503 0.0026402 0.00255563 0.00247171 0.00238882 0.0023073 0.00222747 0.00214961 0.002074 0.00200085 0.00193039 0.0018628 0.00179825 0.00173687 0.0016788 0.00162414 0.00157297 0.00152539 0.00148145 0.0014412 0.00140469 0.00137195 0.00134301 0.0013179 0.00129663 0.00127921 0.00126565 0.00125596 0.00125015 0.00124821 
0.00101105 0.00101274 0.0010178 0.00102625 0.00103808 0.00105332 0.00107195 0.00109401 0.00111951 0.00114845 0.00118085 0.00121672 0.00125607 0.0012989 0.00134522 0.00139502 0.00144828 0.00150497 0.00156508 0.00162854 0.00169529 0.00176526 0.00183835 0.00191445 0.00199341 0.00207508 0.00215926 0.00224574 0.00233427 0.00242459 0.00251638 0.00260931 0.00270301 0.00279707 0.00289107 0.00298455 0.003077 0.00316792 0.00325676 0.00334298 0.00342601 0.00350527 0.0035802 0.00365023 0.00371482 0.00377346 0.00382564 0.00387094 0.00390896 0.00393936 0.00396186 0.00397628 0.00398248 0.00398042 0.00397011 0.00395167 0.00392528 0.00389119 0.00384972 0.00380124 0.0037462 0.00368507 0.00361836 0.00354662 0.00347042 0.00339033 0.00330694 0.00322081 0.00313253 0.00304264 0.00295168 0.00286017 0.0027686 0.00267741 0.00258704 0.00249788 0.00241031 0.00232465 0.0022412 0.00216024 0.00208201 0.00200673 0.00193459 0.00186575 0.00180037 0.00173855 0.00168041 0.00162603 0.00157549 0.00152885 0.00148616 0.00144746 0.00141277 0.00138212 0.00135554 0.00133303 0.0013146 0.00130026 0.00129001 0.00128386 0.00128181 