<?xml version="1.0"?>
<VTKFile type="StructuredGrid" version="0.1">
    <StructuredGrid WholeExtent="0 100 0 100 0 0">
        <Piece Extent="0 100 0 100 0 0">
            <Points>
                <DataArray type="Float64" NumberOfComponents="3" format="ascii">
-15 -15 0
-15 -14.7 0
-15 -14.4 0
-15 -14.1 0
-15 -13.8 0
-15 -13.5 0
-15 -13.2 0
-15 -12.9 0
-15 -12.6 0
-15 -12.3 0
-15 -12 0
-15 -11.7 0
-15 -11.4 0
-15 -11.1 0
-15 -10.8 0
-15 -10.5 0
-15 -10.2 0
-15 -9.9 0
-15 -9.6 0
-15 -9.3 0
-15 -9 0
-15 -8.7 0
-15 -8.4 0
-15 -8.1 0
-15 -7.8 0
-15 -7.5 0
-15 -7.2 0
-15 -6.9 0
-15 -6.6 0
-15 -6.3 0
-15 -6 0
-15 -5.7 0
-15 -5.4 0
-15 -5.1 0
-15 -4.8 0
-15 -4.5 0
-15 -4.2 0
-15 -3.9 0
-15 -3.6 0
-15 -3.3 0
-15 -3 0
-15 -2.7 0
-15 -2.4 0
-15 -2.1 0
-15 -1.8 0
-15 -1.5 0
-15 -1.2 0
-15 -0.9 0
-15 -0.6 0
-15 -0.3 0
-15 0 0
-15 0.3 0
-15 0.6 0
-15 0.9 0
-15 1.2 0
-15 1.5 0
-15 1.8 0
-15 2.1 0
-15 2.4 0
-15 2.7 0
-15 3 0
-15 3.3 0
-15 3.6 0
-15 3.9 0
-15 4.2 0
-15 4.5 0
-15 4.8 0
-15 5.1 0
-15 5.4 0
-15 5.7 0
-15 6 0
-15 6.3 0
-15 6.6 0
-15 6.9 0
-15 7.2 0
-15 7.5 0
-15 7.8 0
-15 8.1 0
-15 8.4 0
-15 8.7 0
-15 9 0
-15 9.3 0
-15 9.6 0
-15 9.9 0
-15 10.2 0
-15 10.5 0
-15 10.8 0
-15 11.1 0
-15 11.4 0
-15 11.7 0
-15 12 0
-15 12.3 0
-15 12.6 0
-15 12.9 0
-15 13.2 0
-15 13.5 0
-15 13.8 0
-15 14.1 0
-15 14.4 0
-15 14.7 0
-15 15 0
-14.7 -15 0
-14.7 -14.7 0
-14.7 -14.4 0
-14.7 -14.1 0
-14.7 -13.8 0
-14.7 -13.5 0
-14.7 -13.2 0
-14.7 -12.9 0
-14.7 -12.6 0
-14.7 -12.3 0
-14.7 -12 0
-14.7 -11.7 0
-14.7 -11.4 0
-14.7 -11.1 0
-14.7 -10.8 0
-14.7 -10.5 0
-14.7 -10.2 0
-14.7 -9.9 0
-14.7 -9.6 0
-14.7 -9.3 0
-14.7 -9 0
-14.7 -8.7 0
-14.7 -8.4 0
-14.7 -8.1 0
-14.7 -7.8 0
-14.7 -7.5 0
-14.7 -7.2 0
-14.7 -6.9 0
-14.7 -6.6 0
-14.7 -6.3 0
-14.7 -6 0
-14.7 -5.7 0
-14.7 -5.4 0
-14.7 -5.1 0
-14.7 -4.8 0
-14.7 -4.5 0
-14.7 -4.2 0
-14.7 -3.9 0
-14.7 -3.6 0
-14.7 -3.3 0
-14.7 -3 0
-14.7 -2.7 0
-14.7 -2.4 0
-14.7 -2.1 0
-14.7 -1.8 0
-14.7 -1.5 0
-14.7 -1.2 0
-14.7 -0.9 0
-14.7 -0.6 0
-14.7 -0.3 0
-14.7 0 0
-14.7 0.3 0
-14.7 0.6 0
-14.7 0.9 0
-14.7 1.2 0
-14.7 1.5 0
-14.7 1.8 0
-14.7 2.1 0
-14.7 2.4 0
-14.7 2.7 0
-14.7 3 0
-14.7 3.3 0
-14.7 3.6 0
-14.7 3.9 0
-14.7 4.2 0
-14.7 4.5 0
-14.7 4.8 0
-14.7 5.1 0
-14.7 5.4 0
-14.7 5.7 0
-14.7 6 0
-14.7 6.3 0
-14.7 6.6 0
-14.7 6.9 0
-14.7 7.2 0
-14.7 7.5 0
-14.7 7.8 0
-14.7 8.1 0
-14.7 8.4 0
-14.7 8.7 0
-14.7 9 0
-14.7 9.3 0
-14.7 9.6 0
-14.7 9.9 0
-14.7 10.2 0
-14.7 10.5 0
-14.7 10.8 0
-14.7 11.1 0
-14.7 11.4 0
-14.7 11.7 0
-14.7 12 0
-14.7 12.3 0
-14.7 12.6 0
-14.7 12.9 0
-14.7 13.2 0
-14.7 13.5 0
-14.7 13.8 0
-14.7 14.1 0
-14.7 14.4 0
-14.7 14.7 0
-14.7 15 0
-14.4 -15 0
-14.4 -14.7 0
-14.4 -14.4 0
-14.4 -14.1 0
-14.4 -13.8 0
-14.4 -13.5 0
-14.4 -13.2 0
-14.4 -12.9 0
-14.4 -12.6 0
-14.4 -12.3 0
-14.4 -12 0
-14.4 -11.7 0
-14.4 -11.4 0
-14.4 -11.1 0
-14.4 -10.8 0
-14.4 -10.5 0
-14.4 -10.2 0
-14.4 -9.9 0
-14.4 -9.6 0
-14.4 -9.3 0
-14.4 -9 0
-14.4 -8.7 0
-14.4 -8.4 0
-14.4 -8.1 0
-14.4 -7.8 0
-14.4 -7.5 0
-14.4 -7.2 0
-14.4 -6.9 0
-14.4 -6.6 0
-14.4 -6.3 0
-14.4 -6 0
-14.4 -5.7 0
-14.4 -5.4 0
-14.4 -5.1 0
-14.4 -4.8 0
-14.4 -4.5 0
-14.4 -4.2 0
-14.4 -3.9 0
-14.4 -3.6 0
-14.4 -3.3 0
-14.4 -3 0
-14.4 -2.7 0
-14.4 -2.4 0
-14.4 -2.1 0
-14.4 -1.8 0
-14.4 -1.5 0
-14.4 -1.2 0
-14.4 -0.9 0
-14.4 -0.6 0
-14.4 -0.3 0
-14.4 0 0
-14.4 0.3 0
-14.4 0.6 0
-14.4 0.9 0
-14.4 1.2 0
-14.4 1.5 0
-14.4 1.8 0
-14.4 2.1 0
-14.4 2.4 0
-14.4 2.7 0
-14.4 3 0
-14.4 3.3 0
-14.4 3.6 0
-14.4 3.9 0
-14.4 4.2 0
-14.4 4.5 0
-14.4 4.8 0
-14.4 5.1 0
-14.4 5.4 0
-14.4 5.7 0
-14.4 6 0
-14.4 6.3 0
-14.4 6.6 0
-14.4 6.9 0
-14.4 7.2 0
-14.4 7.5 0
-14.4 7.8 0
-14.4 8.1 0
-14.4 8.4 0
-14.4 8.7 0
-14.4 9 0
-14.4 9.3 0
-14.4 9.6 0
-14.4 9.9 0
-14.4 10.2 0
-14.4 10.5 0
-14.4 10.8 0
-14.4 11.1 0
-14.4 11.4 0
-14.4 11.7 0
-14.4 12 0
-14.4 12.3 0
-14.4 12.6 0
-14.4 12.9 0
-14.4 13.2 0
-14.4 13.5 0
-14.4 13.8 0
-14.4 14.1 0
-14.4 14.4 0
-14.4 14.7 0
-14.4 15 0
-14.1 -15 0
-14.1 -14.7 0
-14.1 -14.4 0
-14.1 -14.1 0
-14.1 -13.8 0
-14.1 -13.5 0
-14.1 -13.2 0
-14.1 -12.9 0
-14.1 -12.6 0
-14.1 -12.3 0
-14.1 -12 0
-14.1 -11.7 0
-14.1 -11.4 0
-14.1 -11.1 0
-14.1 -10.8 0
-14.1 -10.5 0
-14.1 -10.2 0
-14.1 -9.9 0
-14.1 -9.6 0
-14.1 -9.3 0
-14.1 -9 0
-14.1 -8.7 0
-14.1 -8.4 0
-14.1 -8.1 0
-14.1 -7.8 0
-14.1 -7.5 0
-14.1 -7.2 0
-14.1 -6.9 0
-14.1 -6.6 0
-14.1 -6.3 0
-14.1 -6 0
-14.1 -5.7 0
-14.1 -5.4 0
-14.1 -5.1 0
-14.1 -4.8 0
-14.1 -4.5 0
-14.1 -4.2 0
-14.1 -3.9 0
-14.1 -3.6 0
-14.1 -3.3 0
-14.1 -3 0
-14.1 -2.7 0
-14.1 -2.4 0
-14.1 -2.1 0
-14.1 -1.8 0
-14.1 -1.5 0
-14.1 -1.2 0
-14.1 -0.9 0
-14.1 -0.6 0
-14.1 -0.3 0
-14.1 0 0
-14.1 0.3 0
-14.1 0.6 0
-14.1 0.9 0
-14.1 1.2 0
-14.1 1.5 0
-14.1 1.8 0
-14.1 2.1 0
-14.1 2.4 0
-14.1 2.7 0
-14.1 3 0
-14.1 3.3 0
-14.1 3.6 0
-14.1 3.9 0
-14.1 4.2 0
-14.1 4.5 0
-14.1 4.8 0
-14.1 5.1 0
-14.1 5.4 0
-14.1 5.7 0
-14.1 6 0
-14.1 6.3 0
-14.1 6.6 0
-14.1 6.9 0
-14.1 7.2 0
-14.1 7.5 0
-14.1 7.8 0
-14.1 8.1 0
-14.1 8.4 0
-14.1 8.7 0
-14.1 9 0
-14.1 9.3 0
-14.1 9.6 0
-14.1 9.9 0
-14.1 10.2 0
-14.1 10.5 0
-14.1 10.8 0
-14.1 11.1 0
-14.1 11.4 0
-14.1 11.7 0
-14.1 12 0
-14.1 12.3 0
-14.1 12.6 0
-14.1 12.9 0
-14.1 13.2 0
-14.1 13.5 0
-14.1 13.8 0
-14.1 14.1 0
-14.1 14.4 0
-14.1 14.7 0
-14.1 15 0
-13.8 -15 0
-13.8 -14.7 0
-13.8 -14.4 0
-13.8 -14.1 0
-13.8 -13.8 0
-13.8 -13.5 0
-13.8 -13.2 0
-13.8 -12.9 0
-13.8 -12.6 0
-13.8 -12.3 0
-13.8 -12 0
-13.8 -11.7 0
-13.8 -11.4 0
-13.8 -11.1 0
-13.8 -10.8 0
-13.8 -10.5 0
-13.8 -10.2 0
-13.8 -9.9 0
-13.8 -9.6 0
-13.8 -9.3 0
-13.8 -9 0
-13.8 -8.7 0
-13.8 -8.4 0
-13.8 -8.1 0
-13.8 -7.8 0
-13.8 -7.5 0
-13.8 -7.2 0
-13.8 -6.9 0
-13.8 -6.6 0
-13.8 -6.3 0
-13.8 -6 0
-13.8 -5.7 0
-13.8 -5.4 0
-13.8 -5.1 0
-13.8 -4.8 0
-13.8 -4.5 0
-13.8 -4.2 0
-13.8 -3.9 0
-13.8 -3.6 0
-13.8 -3.3 0
-13.8 -3 0
-13.8 -2.7 0
-13.8 -2.4 0
-13.8 -2.1 0
-13.8 -1.8 0
-13.8 -1.5 0
-13.8 -1.2 0
-13.8 -0.9 0
-13.8 -0.6 0
-13.8 -0.3 0
-13.8 0 0
-13.8 0.3 0
-13.8 0.6 0
-13.8 0.9 0
-13.8 1.2 0
-13.8 1.5 0
-13.8 1.8 0
-13.8 2.1 0
-13.8 2.4 0
-13.8 2.7 0
-13.8 3 0
-13.8 3.3 0
-13.8 3.6 0
-13.8 3.9 0
-13.8 4.2 0
-13.8 4.5 0
-13.8 4.8 0
-13.8 5.1 0
-13.8 5.4 0
-13.8 5.7 0
-13.8 6 0
-13.8 6.3 0
-13.8 6.6 0
-13.8 6.9 0
-13.8 7.2 0
-13.8 7.5 0
-13.8 7.8 0
-13.8 8.1 0
-13.8 8.4 0
-13.8 8.7 0
-13.8 9 0
-13.8 9.3 0
-13.8 9.6 0
-13.8 9.9 0
-13.8 10.2 0
-13.8 10.5 0
-13.8 10.8 0
-13.8 11.1 0
-13.8 11.4 0
-13.8 11.7 0
-13.8 12 0
-13.8 12.3 0
-13.8 12.6 0
-13.8 12.9 0
-13.8 13.2 0
-13.8 13.5 0
-13.8 13.8 0
-13.8 14.1 0
-13.8 14.4 0
-13.8 14.7 0
-13.8 15 0
-13.5 -15 0
-13.5 -14.7 0
-13.5 -14.4 0
-13.5 -14.1 0
-13.5 -13.8 0
-13.5 -13.5 0
-13.5 -13.2 0
-13.5 -12.9 0
-13.5 -12.6 0
-13.5 -12.3 0
-13.5 -12 0
-13.5 -11.7 0
-13.5 -11.4 0
-13.5 -11.1 0
-13.5 -10.8 0
-13.5 -10.5 0
-13.5 -10.2 0
-13.5 -9.9 0
-13.5 -9.6 0
-13.5 -9.3 0
-13.5 -9 0
-13.5 -8.7 0
-13.5 -8.4 0
-13.5 -8.1 0
-13.5 -7.8 0
-13.5 -7.5 0
-13.5 -7.2 0
-13.5 -6.9 0
-13.5 -6.6 0
-13.5 -6.3 0
-13.5 -6 0
-13.5 -5.7 0
-13.5 -5.4 0
-13.5 -5.1 0
-13.5 -4.8 0
-13.5 -4.5 0
-13.5 -4.2 0
-13.5 -3.9 0
-13.5 -3.6 0
-13.5 -3.3 0
-13.5 -3 0
-13.5 -2.7 0
-13.5 -2.4 0
-13.5 -2.1 0
-13.5 -1.8 0
-13.5 -1.5 0
-13.5 -1.2 0
-13.5 -0.9 0
-13.5 -0.6 0
-13.5 -0.3 0
-13.5 0 0
-13.5 0.3 0
-13.5 0.6 0
-13.5 0.9 0
-13.5 1.2 0
-13.5 1.5 0
-13.5 1.8 0
-13.5 2.1 0
-13.5 2.4 0
-13.5 2.7 0
-13.5 3 0
-13.5 3.3 0
-13.5 3.6 0
-13.5 3.9 0
-13.5 4.2 0
-13.5 4.5 0
-13.5 4.8 0
-13.5 5.1 0
-13.5 5.4 0
-13.5 5.7 0
-13.5 6 0
-13.5 6.3 0
-13.5 6.6 0
-13.5 6.9 0
-13.5 7.2 0
-13.5 7.5 0
-13.5 7.8 0
-13.5 8.1 0
-13.5 8.4 0
-13.5 8.7 0
-13.5 9 0
-13.5 9.3 0
-13.5 9.6 0
-13.5 9.9 0
-13.5 10.2 0
-13.5 10.5 0
-13.5 10.8 0
-13.5 11.1 0
-13.5 11.4 0
-13.5 11.7 0
-13.5 12 0
-13.5 12.3 0
-13.5 12.6 0
-13.5 12.9 0
-13.5 13.2 0
-13.5 13.5 0
-13.5 13.8 0
-13.5 14.1 0
-13.5 14.4 0
-13.5 14.7 0
-13.5 15 0
-13.2 -15 0
-13.2 -14.7 0
-13.2 -14.4 0
-13.2 -14.1 0
-13.2 -13.8 0
-13.2 -13.5 0
-13.2 -13.2 0
-13.2 -12.9 0
-13.2 -12.6 0
-13.2 -12.3 0
-13.2 -12 0
-13.2 -11.7 0
-13.2 -11.4 0
-13.2 -11.1 0
-13.2 -10.8 0
-13.2 -10.5 0
-13.2 -10.2 0
-13.2 -9.9 0
-13.2 -9.6 0
-13.2 -9.3 0
-13.2 -9 0
-13.2 -8.7 0
-13.2 -8.4 0
-13.2 -8.1 0
-13.2 -7.8 0
-13.2 -7.5 0
-13.2 -7.2 0
-13.2 -6.9 0
-13.2 -6.6 0
-13.2 -6.3 0
-13.2 -6 0
-13.2 -5.7 0
-13.2 -5.4 0
-13.2 -5.1 0
-13.2 -4.8 0
-13.2 -4.5 0
-13.2 -4.2 0
-13.2 -3.9 0
-13.2 -3.6 0
-13.2 -3.3 0
-13.2 -3 0
-13.2 -2.7 0
-13.2 -2.4 0
-13.2 -2.1 0
-13.2 -1.8 0
-13.2 -1.5 0
-13.2 -1.2 0
-13.2 -0.9 0
-13.2 -0.6 0
-13.2 -0.3 0
-13.2 0 0
-13.2 0.3 0
-13.2 0.6 0
-13.2 0.9 0
-13.2 1.2 0
-13.2 1.5 0
-13.2 1.8 0
-13.2 2.1 0
-13.2 2.4 0
-13.2 2.7 0
-13.2 3 0
-13.2 3.3 0
-13.2 3.6 0
-13.2 3.9 0
-13.2 4.2 0
-13.2 4.5 0
-13.2 4.8 0
-13.2 5.1 0
-13.2 5.4 0
-13.2 5.7 0
-13.2 6 0
-13.2 6.3 0
-13.2 6.6 0
-13.2 6.9 0
-13.2 7.2 0
-13.2 7.5 0
-13.2 7.8 0
-13.2 8.1 0
-13.2 8.4 0
-13.2 8.7 0
-13.2 9 0
-13.2 9.3 0
-13.2 9.6 0
-13.2 9.9 0
-13.2 10.2 0
-13.2 10.5 0
-13.2 10.8 0
-13.2 11.1 0
-13.2 11.4 0
-13.2 11.7 0
-13.2 12 0
-13.2 12.3 0
-13.2 12.6 0
-13.2 12.9 0
-13.2 13.2 0
-13.2 13.5 0
-13.2 13.8 0
-13.2 14.1 0
-13.2 14.4 0
-13.2 14.7 0
-13.2 15 0
-12.9 -15 0
-12.9 -14.7 0
-12.9 -14.4 0
-12.9 -14.1 0
-12.9 -13.8 0
-12.9 -13.5 0
-12.9 -13.2 0
-12.9 -12.9 0
-12.9 -12.6 0
-12.9 -12.3 0
-12.9 -12 0
-12.9 -11.7 0
-12.9 -11.4 0
-12.9 -11.1 0
-12.9 -10.8 0
-12.9 -10.5 0
-12.9 -10.2 0
-12.9 -9.9 0
-12.9 -9.6 0
-12.9 -9.3 0
-12.9 -9 0
-12.9 -8.7 0
-12.9 -8.4 0
-12.9 -8.1 0
-12.9 -7.8 0
-12.9 -7.5 0
-12.9 -7.2 0
-12.9 -6.9 0
-12.9 -6.6 0
-12.9 -6.3 0
-12.9 -6 0
-12.9 -5.7 0
-12.9 -5.4 0
-12.9 -5.1 0
-12.9 -4.8 0
-12.9 -4.5 0
-12.9 -4.2 0
-12.9 -3.9 0
-12.9 -3.6 0
-12.9 -3.3 0
-12.9 -3 0
-12.9 -2.7 0
-12.9 -2.4 0
-12.9 -2.1 0
-12.9 -1.8 0
-12.9 -1.5 0
-12.9 -1.2 0
-12.9 -0.9 0
-12.9 -0.6 0
-12.9 -0.3 0
-12.9 0 0
-12.9 0.3 0
-12.9 0.6 0
-12.9 0.9 0
-12.9 1.2 0
-12.9 1.5 0
-12.9 1.8 0
-12.9 2.1 0
-12.9 2.4 0
-12.9 2.7 0
-12.9 3 0
-12.9 3.3 0
-12.9 3.6 0
-12.9 3.9 0
-12.9 4.2 0
-12.9 4.5 0
-12.9 4.8 0
-12.9 5.1 0
-12.9 5.4 0
-12.9 5.7 0
-12.9 6 0
-12.9 6.3 0
-12.9 6.6 0
-12.9 6.9 0
-12.9 7.2 0
-12.9 7.5 0
-12.9 7.8 0
-12.9 8.1 0
-12.9 8.4 0
-12.9 8.7 0
-12.9 9 0
[...]
            <PointData>
                <DataArray type="Float64" Name="c1" format="ascii">
0.00298612 0.00298937 0.00299912 0.00301535 0.00303807 0.00306724 0.00310286 0.0031449 0.00319332 0.00324809 0.00330915 0.00337644 0.00344991 0.00352945 0.00361499 0.00370641 0.00380357 0.00390633 0.00401453 0.00412796 0.00424641 0.00436965 0.00449738 0.00462931 0.0047651 0.00490438 0.00504674 0.00519174 0.0053389 0.0054877 0.0056376 0.00578799 0.00593826 0.00608775 0.00623578 0.00638164 0.00652459 0.0066639 0.00679879 0.00692851 0.00705229 0.00716939 0.00727905 0.00738059 0.00747331 0.0075566 0.00762986 0.00769259 0.00774433 0.00778471 0.00781344 0.00783033 0.00783526 0.00782821 0.00780928 0.00777864 0.00773655 0.00768337 0.00761952 0.00754553 0.00746196 0.00736944 0.00726866 0.00716031 0.00704515 0.00692394 0.00679745 0.00666647 0.00653176 0.00639409 0.00625422 0.00611286 0.00597071 0.00582847 0.00568675 0.00554619 0.00540735 0.00527078 0.00513699 0.00500644 0.00487958 0.0047568 0.00463848 0.00452496 0.00441654 0.00431351 0.00421612 0.00412459 0.00403913 0.00395992 0.00388712 0.00382087 0.00376129 0.00370849 0.00366255 0.00362356 0.00359158 0.00356665 0.00354882 0.00353811 0.00353454 
0.00298797 0.00299122 0.00300099 0.00301725 0.00304001 0.00306924 0.00310493 0.00314705 0.00319557 0.00325044 0.00331162 0.00337906 0.00345267 0.00353239 0.00361812 0.00370973 0.00380712 0.00391012 0.00401857 0.00413228 0.00425104 0.00437459 0.00450266 0.00463495 0.00477112 0.00491081 0.00505359 0.00519904 0.00534666 0.00549595 0.00564635 0.00579726 0.00594806 0.0060981 0.00624669 0.00639312 0.00653665 0.00667653 0.00681199 0.00694227 0.0070666 0.00718422 0.0072944 0.00739641 0.00748958 0.00757327 0.00764689 0.00770993 0.00776193 0.00780251 0.00783138 0.00784835 0.00785329 0.0078462 0.00782715 0.00779634 0.00775402 0.00770055 0.00763637 0.00756199 0.00747799 0.00738501 0.00728373 0.00717487 0.00705917 0.0069374 0.00681036 0.0066788 0.00654353 0.0064053 0.00626486 0.00612295 0.00598028 0.00583751 0.00569529 0.00555425 0.00541494 0.00527793 0.00514371 0.00501276 0.00488551 0.00476238 0.00464372 0.00452988 0.00442117 0.00431787 0.00422022 0.00412846 0.00404279 0.00396338 0.00389041 0.003824 0.00376428 0.00371136 0.00366532 0.00362624 0.00359418 0.0035692 0.00355133 0.00354059 0.00353701 
0.00299349 0.00299677 0.00300659 0.00302294 0.00304583 0.00307523 0.00311112 0.00315349 0.00320229 0.00325749 0.00331904 0.00338689 0.00346097 0.0035412 0.00362748 0.0037197 0.00381775 0.00392147 0.0040307 0.00414524 0.00426489 0.00438939 0.00451849 0.00465186 0.00478918 0.00493007 0.00507413 0.00522092 0.00536994 0.00552069 0.0056726 0.00582508 0.00597749 0.00612919 0.00627946 0.00642759 0.00657284 0.00671444 0.00685162 0.00698359 0.00710957 0.0072288 0.0073405 0.00744395 0.00753846 0.00762337 0.00769808 0.00776205 0.00781483 0.00785601 0.00788531 0.0079025 0.00790749 0.00790025 0.00788086 0.00784952 0.0078065 0.00775216 0.00768696 0.00761143 0.00752615 0.00743177 0.007329 0.00721858 0.00710126 0.00697783 0.00684909 0.00671584 0.00657885 0.00643893 0.00629681 0.00615326 0.00600897 0.00586464 0.00572091 0.00557841 0.0054377 0.00529935 0.00516386 0.0050317 0.00490331 0.0047791 0.00465943 0.00454464 0.00443505 0.00433092 0.00423252 0.00414006 0.00405374 0.00397376 0.00390025 0.00383337 0.00377324 0.00371994 0.00367359 0.00363425 0.00360198 0.00357683 0.00355884 0.00354803 0.00354443 
0.00300268 0.00300598 0.00301589 0.0030324 0.0030555 0.00308518 0.00312142 0.00316419 0.00321347 0.00326921 0.00333138 0.00339992 0.00347477 0.00355584 0.00364305 0.00373629 0.00383544 0.00394036 0.00405088 0.00416681 0.00428795 0.00441404 0.00454483 0.00468001 0.00481924 0.00496216 0.00510835 0.00525737 0.00540873 0.00556191 0.00571635 0.00587145 0.00602657 0.00618102 0.00633412 0.00648512 0.00663325 0.00677774 0.0069178 0.00705261 0.00718136 0.00730327 0.00741754 0.00752341 0.00762017 0.00770713 0.00778367 0.00784922 0.0079033 0.00794549 0.0079755 0.00799308 0.00799813 0.00799064 0.00797068 0.00793845 0.00789425 0.00783845 0.00777153 0.00769404 0.0076066 0.00750989 0.00740462 0.00729158 0.00717154 0.00704532 0.00691375 0.00677763 0.00663778 0.00649501 0.00635009 0.00620378 0.00605681 0.00590986 0.0057636 0.00561866 0.00547562 0.00533503 0.00519741 0.00506324 0.00493294 0.00480693 0.00468557 0.0045692 0.00445813 0.00435264 0.00425297 0.00415935 0.00407197 0.00399101 0.00391663 0.00384896 0.00378813 0.00373423 0.00368735 0.00364756 0.00361493 0.00358951 0.00357132 0.00356039 0.00355675 
0.00301549 0.00301883 0.00302887 0.00304559 0.00306899 0.00309906 0.00313577 0.00317911 0.00322905 0.00328556 0.00334859 0.0034181 0.00349401 0.00357627 0.00366478 0.00375944 0.00386014 0.00396673 0.00407905 0.00419693 0.00432015 0.00444848 0.00458165 0.00471935 0.00486127 0.00500702 0.0051562 0.00530835 0.005463 0.00561961 0.00577762 0.0059364 0.00609531 0.00625367 0.00641075 0.00656578 0.006718 0.00686658 0.0070107 0.00714953 0.00728222 0.00740793 0.00752584 0.00763515 0.0077351 0.00782497 0.0079041 0.00797188 0.00802781 0.00807144 0.00810243 0.00812057 0.0081257 0.00811783 0.00809705 0.00806355 0.00801766 0.00795979 0.00789042 0.00781016 0.00771965 0.00761962 0.00751082 0.00739407 0.00727019 0.00714003 0.00700444 0.00686429 0.00672041 0.00657363 0.00642475 0.00627456 0.00612379 0.00597316 0.00582335 0.00567498 0.00552866 0.00538494 0.00524433 0.00510732 0.00497435 0.00484582 0.00472209 0.00460351 0.00449038 0.00438297 0.00428153 0.00418627 0.0040974 0.00401508 0.00393948 0.00387071 0.0038089 0.00375415 0.00370653 0.00366613 0.003633 0.00360719 0.00358872 0.00357763 0.00357394 
0.00303186 0.00303526 0.00304546 0.00306246 0.00308624 0.0031168 0.00315413 0.0031982 0.00324899 0.00330648 0.00337061 0.00344136 0.00351865 0.00360242 0.0036926 0.00378909 0.00389176 0.0040005 0.00411515 0.00423552 0.00436143 0.00449263 0.00462886 0.00476982 0.00491519 0.0050646 0.00521763 0.00537384 0.00553273 0.00569377 0.00585638 0.00601994 0.00618378 0.0063472 0.00650945 0.00666974 0.00682726 0.00698117 0.0071306 0.00727467 0.00741249 0.00754318 0.00766585 0.00777966 0.00788379 0.00797747 0.00805998 0.00813069 0.00818902 0.00823452 0.00826681 0.00828565 0.00829088 0.0082825 0.00826062 0.00822545 0.00817733 0.00811671 0.00804414 0.00796025 0.00786573 0.00776135 0.00764794 0.00752635 0.00739746 0.00726216 0.00712136 0.00697596 0.00682683 0.00667485 0.00652084 0.00636562 0.00620994 0.00605455 0.00590014 0.00574735 0.00559678 0.00544901 0.00530455 0.00516389 0.00502747 0.00489569 0.00476892 0.00464749 0.0045317 0.00442182 0.0043181 0.00422075 0.00412996 0.0040459 0.00396872 0.00389854 0.00383548 0.00377964 0.00373108 0.00368989 0.00365611 0.0036298 0.00361098 0.00359968 0.00359591 
0.00305174 0.0030552 0.0030656 0.00308293 0.00310718 0.00313835 0.00317642 0.00322138 0.00327321 0.00333188 0.00339736 0.00346962 0.00354859 0.00363421 0.00372643 0.00382513 0.00393023 0.00404159 0.00415907 0.0042825 0.00441168 0.00454639 0.00468637 0.00483132 0.00498093 0.00513482 0.00529258 0.00545376 0.00561787 0.00578436 0.00595265 0.0061221 0.00629203 0.0064617 0.00663035 0.00679715 0.00696127 0.0071218 0.00727784 0.00742844 0.00757266 0.00770955 0.00783817 0.0079576 0.00806695 0.00816539 0.00825213 0.00832649 0.00838783 0.00843565 0.00846954 0.00848923 0.00849456 0.00848552 0.00846222 0.00842492 0.008374 0.00830993 0.00823333 0.00814488 0.00804535 0.00793556 0.0078164 0.00768879 0.00755367 0.007412 0.00726473 0.00711283 0.00695721 0.00679879 0.00663844 0.006477 0.00631528 0.00615402 0.00599394 0.0058357 0.00567992 0.00552718 0.00537799 0.00523285 0.0050922 0.00495644 0.00482594 0.00470102 0.00458199 0.0044691 0.0043626 0.00426269 0.00416956 0.00408337 0.00400426 0.00393236 0.00386778 0.0038106 0.0037609 0.00371874 0.00368418 0.00365726 0.00363801 0.00362645 0.00362259 
0.00307503 0.00307857 0.00308921 0.00310693 0.00313173 0.00316361 0.00320256 0.00324857 0.00330161 0.00336168 0.00342875 0.00350278 0.00358372 0.00367153 0.00376614 0.00386747 0.00397542 0.00408987 0.0042107 0.00433774 0.00447079 0.00460965 0.00475406 0.00490374 0.00505837 0.00521757 0.00538095 0.00554805 0.00571836 0.00589135 0.00606642 0.0062429 0.0064201 0.00659727 0.0067736 0.00694824 0.00712029 0.00728881 0.00745283 0.00761133 0.00776331 0.00790772 0.00804356 0.0081698 0.00828549 0.00838971 0.00848159 0.00856037 0.00862535 0.00867597 0.00871178 0.00873246 0.00873786 0.00872796 0.0087029 0.00866296 0.00860858 0.0085403 0.00845878 0.00836479 0.00825917 0.00814282 0.00801671 0.00788183 0.0077392 0.00758986 0.00743482 0.0072751 0.0071117 0.00694556 0.00677762 0.00660876 0.0064398 0.00627154 0.00610471 0.00593999 0.005778 0.00561935 0.00546455 0.00531409 0.00516843 0.00502796 0.00489304 0.00476399 0.00464112 0.00452467 0.00441488 0.00431195 0.00421606 0.00412735 0.00404598 0.00397205 0.00390567 0.00384692 0.00379586 0.00375257 0.00371709 0.00368945 0.00366969 0.00365783 0.00365387 
0.00310165 0.00310528 0.00311618 0.00313435 0.00315979 0.00319248 0.00323244 0.00327964 0.00333409 0.00339577 0.00346465 0.00354072 0.00362393 0.00371425 0.00381161 0.00391596 0.00402719 0.00414521 0.00426989 0.00440108 0.00453861 0.00468226 0.0048318 0.00498694 0.00514737 0.00531274 0.00548263 0.00565659 0.00583413 0.00601468 0.00619764 0.00638234 0.00656806 0.00675402 0.00693938 0.00712324 0.00730466 0.00748262 0.00765609 0.00782397 0.00798516 0.00813852 0.00828294 0.0084173 0.00854055 0.00865164 0.00874964 0.00883368 0.00890298 0.0089569 0.00899494 0.00901675 0.00902216 0.00901116 0.00898392 0.00894077 0.0088822 0.00880883 0.00872142 0.00862082 0.00850794 0.00838381 0.00824946 0.008106 0.00795451 0.00779612 0.00763193 0.00746303 0.00729048 0.00711531 0.00693848 0.00676093 0.00658353 0.00640709 0.00623239 0.00606012 0.00589092 0.0057254 0.00556409 0.00540747 0.005256 0.00511008 0.00497005 0.00483624 0.00470893 0.00458838 0.0044748 0.00436838 0.00426931 0.00417771 0.00409373 0.00401747 0.00394902 0.00388846 0.00383585 0.00379125 0.00375471 0.00372625 0.00370591 0.00369369 0.00368962 
0.00313147 0.00313521 0.00314641 0.00316509 0.00319123 0.00322485 0.00326593 0.00331449 0.00337052 0.003434 0.00350493 0.0035833 0.00366907 0.00376222 0.00386269 0.00397044 0.00408538 0.00420743 0.00433648 0.00447237 0.00461496 0.00476405 0.00491939 0.00508074 0.00524778 0.00542016 0.00559747 0.00577928 0.00596506 0.00615428 0.0063463 0.00654044 0.00673597 0.00693207 0.00712787 0.00732243 0.00751474 0.00770372 0.00788823 0.00806709 0.00823908 0.00840295 0.00855745 0.00870136 0.00883348 0.00895266 0.00905785 0.00914805 0.00922239 0.00928016 0.00932076 0.00934382 0.00934913 0.00933672 0.00930679 0.00925974 0.00919614 0.00911673 0.00902234 0.00891393 0.00879255 0.0086593 0.00851535 0.00836187 0.00820009 0.0080312 0.00785641 0.00767689 0.00749377 0.00730816 0.00712109 0.00693354 0.00674643 0.00656062 0.0063769 0.00619599 0.00601855 0.00584519 0.00567645 0.00551282 0.00535475 0.00520262 0.00505679 0.00491758 0.00478524 0.00466004 0.00454216 0.00443181 0.00432914 0.00423427 0.00414734 0.00406845 0.00399766 0.00393506 0.0038807 0.00383463 0.00379689 0.00376751 0.00374651 0.0037339 0.00372969 
0.00316439 0.00316823 0.00317977 0.003199 0.00322594 0.00326057 0.00330291 0.00335297 0.00341075 0.00347624 0.00354945 0.00363036 0.00371898 0.00381527 0.0039192 0.00403074 0.00414981 0.00427635 0.00441026 0.0045514 0.00469965 0.0048548 0.00501665 0.00518495 0.0053594 0.00553964 0.00572531 0.00591594 0.00611103 0.00631003 0.0065123 0.00671716 0.00692385 0.00713153 0.00733928 0.00754611 0.00775096 0.00795264 0.00814994 0.00834154 0.00852609 0.00870219 0.00886844 0.00902347 0.00916594 0.00929455 0.00940809 0.00950546 0.00958565 0.00964783 0.00969133 0.0097157 0.00972075 0.00970652 0.00967328 0.00962152 0.00955192 0.00946534 0.00936275 0.00924524 0.00911397 0.00897017 0.00881512 0.00865013 0.0084765 0.00829557 0.00810863 0.00791696 0.00772178 0.00752427 0.00732553 0.00712662 0.0069285 0.00673206 0.00653813 0.00634746 0.00616073 0.00597853 0.00580144 0.00562993 0.00546445 0.00530537 0.00515305 0.00500779 0.00486984 0.00473943 0.00461677 0.00450203 0.00439534 0.00429684 0.00420663 0.00412479 0.00405141 0.00398654 0.00393024 0.00388253 0.00384346 0.00381305 0.00379132 0.00377827 0.00377392 
0.00320024 0.00320421 0.00321611 0.00323596 0.00326375 0.00329951 0.00334323 0.00339493 0.00345462 0.00352231 0.00359802 0.00368174 0.00377347 0.00387321 0.00398095 0.00409665 0.00422027 0.00435175 0.00449101 0.00463794 0.00479243 0.00495429 0.00512334 0.00529933 0.00548198 0.00567097 0.00586592 0.00606637 0.00627185 0.00648179 0.00669556 0.00691246 0.00713172 0.00735248 0.00757378 0.0077946 0.00801376 0.00823003 0.00844204 0.00864834 0.0088474 0.00903766 0.00921753 0.00938545 0.00953989 0.00967942 0.00980264 0.0099083 0.00999522 0.0100624 0.0101092 0.0101349 0.0101394 0.0101228 0.0100855 0.010028 0.00995124 0.00985622 0.00974405 0.00961597 0.00947329 0.00931738 0.00914964 0.00897149 0.00878438 0.00858976 0.00838903 0.00818358 0.00797474 0.00776378 0.00755189 0.00734018 0.00712967 0.00692132 0.00671596 0.00651437 0.00631726 0.00612523 0.00593883 0.00575857 0.00558486 0.00541808 0.00525857 0.00510662 0.00496246 0.00482632 0.00469838 0.0045788 0.00446769 0.00436518 0.00427136 0.00418631 0.00411007 0.00404271 0.00398427 0.00393477 0.00389424 0.0038627 0.00384016 0.00382663 0.00382212 
0.00323888 0.00324298 0.00325529 0.0032758 0.00330453 0.00334149 0.0033867 0.00344018 0.00350196 0.00357204 0.00365045 0.00373721 0.00383234 0.00393584 0.00404771 0.00416794 0.00429651 0.00443337 0.00457847 0.00473173 0.00489303 0.00506224 0.00523916 0.0054236 0.00561527 0.00581387 0.00601904 0.00623034 0.0064473 0.00666937 0.00689591 0.00712623 0.00735955 0.00759498 0.00783156 0.00806819 0.00830363 0.00853655 0.00876542 0.00898863 0.00920444 0.00941105 0.00960664 0.00978943 0.0099577 0.0101098 0.0102442 0.0103594 0.0104541 0.010527 0.0105772 0.0106043 0.0106079 0.0105882 0.0105457 0.0104813 0.010396 0.0102911 0.0101678 0.0100275 0.00987174 0.00970201 0.00951984 0.00932679 0.00912444 0.00891434 0.00869806 0.0084771 0.0082529 0.00802685 0.00780022 0.0075742 0.00734989 0.00712826 0.0069102 0.00669652 0.00648791 0.00628501 0.00608836 0.00589845 0.0057157 0.00554047 0.00537307 0.00521379 0.00506285 0.00492044 0.00478673 0.00466186 0.00454594 0.00443906 0.00434131 0.00425274 0.0041734 0.00410333 0.00404256 0.00399111 0.003949 0.00391623 0.00389282 0.00387877 0.00387409 
0.00328015 0.00328439 0.00329712 0.00331834 0.00334808 0.00338634 0.00343316 0.00348856 0.00355257 0.00362522 0.00370655 0.00379658 0.00389536 0.0040029 0.00411923 0.00424435 0.00437827 0.00452095 0.00467238 0.00483248 0.00500117 0.00517834 0.00536383 0.00555744 0.00575893 0.00596803 0.00618437 0.00640755 0.00663711 0.00687251 0.00711314 0.00735831 0.00760724 0.00785905 0.00811274 0.00836717 0.00862106 0.00887292 0.0091211 0.00936375 0.00959885 0.00982432 0.010038 0.0102379 0.0104221 0.0105887 0.0107359 0.0108621 0.0109657 0.0110451 0.0110992 0.0111274 0.0111295 0.0111057 0.0110568 0.0109839 0.0108884 0.0107718 0.0106355 0.0104813 0.0103106 0.0101253 0.00992681 0.00971697 0.00949746 0.00926999 0.00903625 0.00879791 0.00855654 0.00831364 0.00807059 0.00782867 0.00758904 0.00735272 0.00712065 0.00689364 0.00667241 0.00645758 0.00624971 0.00604926 0.00585664 0.00567219 0.00549622 0.00532898 0.00517066 0.00502146 0.0048815 0.00475091 0.00462979 0.0045182 0.0044162 0.00432384 0.00424115 0.00416816 0.00410489 0.00405133 0.00400751 0.00397343 0.00394908 0.00393447 0.0039296 
0.00332385 0.00332825 0.00334143 0.00336342 0.00339422 0.00343387 0.0034824 0.00353984 0.00360623 0.00368163 0.00376607 0.00385961 0.00396229 0.00407416 0.00419526 0.00432561 0.00446525 0.00461418 0.00477239 0.00493985 0.0051165 0.00530224 0.00549696 0.00570049 0.00591261 0.00613306 0.00636153 0.00659764 0.00684093 0.00709091 0.00734698 0.00760847 0.00787464 0.0081446 0.00841737 0.00869179 0.0089665 0.00923991 0.00951019 0.00977519 0.0100326 0.0102798 0.0105144 0.010734 0.0109364 0.0111196 0.0112816 0.0114204 0.0115342 0.0116211 0.0116794 0.0117085 0.0117081 0.0116788 0.0116218 0.0115385 0.0114308 0.0113004 0.0111492 0.0109789 0.0107915 0.0105885 0.0103717 0.0101431 0.00990438 0.00965747 0.00940422 0.00914647 0.00888596 0.00862432 0.00836306 0.00810354 0.00784699 0.00759451 0.00734705 0.00710544 0.00687042 0.00664259 0.00642251 0.00621061 0.0060073 0.00581289 0.00562766 0.00545182 0.00528557 0.00512905 0.00498237 0.00484564 0.00471893 0.00460228 0.00449574 0.00439932 0.00431305 0.00423694 0.00417098 0.00411518 0.00406953 0.00403403 0.00400868 0.00399347 0.0039884 
0.0033698 0.00337435 0.00338802 0.00341081 0.00344275 0.00348387 0.00353421 0.00359381 0.00366273 0.00374104 0.00382878 0.00392603 0.00403285 0.00414932 0.00427549 0.00441141 0.00455715 0.00471273 0.00487818 0.00505349 0.00523863 0.00543355 0.00563816 0.00585233 0.00607587 0.00630856 0.0065501 0.00680017 0.00705834 0.00732414 0.00759702 0.00787637 0.00816145 0.00845146 0.00874541 0.00904216 0.00934034 0.00963825 0.00993383 0.0102246 0.0105078 0.0107802 0.0110389 0.0112811 0.0115042 0.0117063 0.0118853 0.0120389 0.0121646 0.0122601 0.0123231 0.0123525 0.0123484 0.0123116 0.0122441 0.012148 0.0120256 0.011879 0.0117106 0.0115222 0.0113158 0.0110932 0.0108561 0.0106065 0.0103463 0.0100777 0.00980271 0.00952333 0.00924152 0.00895908 0.00867766 0.00839872 0.00812358 0.00785337 0.00758909 0.00733158 0.00708156 0.00683964 0.00660635 0.0063821 0.00616727 0.00596214 0.00576696 0.00558192 0.00540716 0.00524282 0.00508898 0.0049457 0.00481302 0.00469099 0.0045796 0.00447887 0.00438879 0.00430936 0.00424055 0.00418237 0.00413478 0.00409779 0.00407138 0.00405553 0.00405025 
0.00341778 0.00342251 0.00343668 0.00346032 0.00349345 0.00353611 0.00358836 0.00365024 0.00372182 0.00380319 0.00389441 0.00399557 0.00410677 0.00422808 0.0043596 0.00450142 0.0046536 0.00481623 0.00498934 0.00517298 0.00536715 0.00557184 0.00578698 0.0060125 0.00624823 0.00649401 0.00674958 0.00701463 0.00728882 0.0075717 0.0078628 0.00816154 0.00846728 0.00877927 0.00909662 0.00941825 0.00974281 0.0100686 0.0103932 0.0107139 0.0110272 0.0113289 0.0116154 0.0118833 0.0121299 0.0123534 0.0125517 0.0127225 0.0128625 0.0129682 0.0130364 0.0130655 0.0130556 0.0130087 0.0129276 0.0128155 0.0126753 0.0125098 0.0123217 0.012113 0.0118855 0.0116411 0.0113815 0.0111087 0.0108247 0.0105319 0.0102326 0.00992912 0.00962363 0.00931813 0.00901443 0.00871412 0.00841858 0.00812901 0.0078464 0.00757162 0.00730538 0.00704826 0.00680075 0.00656324 0.00633607 0.00611948 0.00591368 0.00571882 0.00553502 0.00536237 0.00520091 0.00505068 0.00491169 0.00478395 0.00466745 0.00456216 0.00446805 0.00438511 0.00431331 0.0042526 0.00420298 0.00416441 0.00413687 0.00412035 0.00411485 
0.00346758 0.00347248 0.00348718 0.00351171 0.00354609 0.00359037 0.0036446 0.00370887 0.00378324 0.00386781 0.00396267 0.00406794 0.00418372 0.00431012 0.00444726 0.00459527 0.00475424 0.00492427 0.00510547 0.0052979 0.0055016 0.00571661 0.00594292 0.00618046 0.00642916 0.00668886 0.00695937 0.00724044 0.00753177 0.00783299 0.00814369 0.00846339 0.00879154 0.00912751 0.00947057 0.00981977 0.0101739 0.0105313 0.0108895 0.0112452 0.0115938 0.0119299 0.0122484 0.0125453 0.0128181 0.0130652 0.0132855 0.0134767 0.0136343 0.0137528 0.0138272 0.0138548 0.0138362 0.0137752 0.0136762 0.013544 0.0133824 0.0131949 0.0129844 0.0127532 0.0125028 0.0122346 0.0119503 0.0116517 0.0113412 0.0110214 0.010695 0.0103646 0.0100328 0.00970171 0.00937341 0.00904959 0.00873172 0.00842104 0.00811855 0.00782509 0.00754136 0.0072679 0.00700516 0.00675349 0.00651316 0.00628438 0.0060673 0.00586204 0.00566867 0.00548722 0.00531773 0.00516017 0.00501454 0.00488079 0.0047589 0.00464882 0.00455049 0.00446387 0.00438891 0.00432557 0.00427381 0.00423358 0.00420487 0.00418765 0.00418191 