<?xml version="1.0"?>
<VTKFile type="StructuredGrid" version="0.1">
    <StructuredGrid WholeExtent="0 100 0 100 0 0">
        <Piece Extent="0 100 0 100 0 0">
            <Points>
                <DataArray type="Float64" NumberOfComponents="3" format="ascii">
-15 -15 0
-15 -14.7 0
-15 -14.4 0
-15 -14.1 0
-15 -13.8 0
-15 -13.5 0
-15 -13.2 0
-15 -12.9 0
-15 -12.6 0
-15 -12.3 0
-15 -12 0
-15 -11.7 0
-15 -11.4 0
-15 -11.1 0
-15 -10.8 0
-15 -10.5 0
-15 -10.2 0
-15 -9.9 0
-15 -9.6 0
-15 -9.3 0
-15 -9 0
-15 -8.7 0
-15 -8.4 0
-15 -8.1 0
-15 -7.8 0
-15 -7.5 0
-15 -7.2 0
-15 -6.9 0
-15 -6.6 0
-15 -6.3 0
-15 -6 0
-15 -5.7 0
-15 -5.4 0
-15 -5.1 0
-15 -4.8 0
-15 -4.5 0
-15 -4.2 0
-15 -3.9 0
-15 -3.6 0
-15 -3.3 0
-15 -3 0
-15 -2.7 0
-15 -2.4 0
-15 -2.1 0
-15 -1.8 0
-15 -1.5 0
-15 -1.2 0
-15 -0.9 0
-15 -0.6 0
-15 -0.3 0
-15 0 0
-15 0.3 0
-15 0.6 0
-15 0.9 0
-15 1.2 0
-15 1.5 0
-15 1.8 0
-15 2.1 0
-15 2.4 0
-15 2.7 0
-15 3 0
-15 3.3 0
-15 3.6 0
-15 3.9 0
-15 4.2 0
-15 4.5 0
-15 4.8 0
-15 5.1 0
-15 5.4 0
-15 5.7 0
-15 6 0
-15 6.3 0
-15 6.6 0
-15 6.9 0
-15 7.2 0
-15 7.5 0
-15 7.8 0
-15 8.1 0
-15 8.4 0
-15 8.7 0
-15 9 0
-15 9.3 0
-15 9.6 0
-15 9.9 0
-15 10.2 0
-15 10.5 0
-15 10.8 0
-15 11.1 0
-15 11.4 0
-15 11.7 0
-15 12 0
-15 12.3 0
-15 12.6 0
-15 12.9 0
-15 13.2 0
-15 13.5 0
-15 13.8 0
-15 14.1 0
-15 14.4 0
-15 14.7 0
-15 15 0
-14.7 -15 0
-14.7 -14.7 0
-14.7 -14.4 0
-14.7 -14.1 0
-14.7 -13.8 0
-14.7 -13.5 0
-14.7 -13.2 0
-14.7 -12.9 0
-14.7 -12.6 0
-14.7 -12.3 0
-14.7 -12 0
-14.7 -11.7 0
-14.7 -11.4 0
-14.7 -11.1 0
-14.7 -10.8 0
-14.7 -10.5 0
-14.7 -10.2 0
-14.7 -9.9 0
-14.7 -9.6 0
-14.7 -9.3 0
-14.7 -9 0
-14.7 -8.7 0
-14.7 -8.4 0
-14.7 -8.1 0
-14.7 -7.8 0
-14.7 -7.5 0
-14.7 -7.2 0
-14.7 -6.9 0
-14.7 -6.6 0
-14.7 -6.3 0
-14.7 -6 0
-14.7 -5.7 0
-14.7 -5.4 0
-14.7 -5.1 0
-14.7 -4.8 0
-14.7 -4.5 0
-14.7 -4.2 0
-14.7 -3.9 0
-14.7 -3.6 0
-14.7 -3.3 0
-14.7 -3 0
-14.7 -2.7 0
-14.7 -2.4 0
-14.7 -2.1 0
-14.7 -1.8 0
-14.7 -1.5 0
-14.7 -1.2 0
-14.7 -0.9 0
-14.7 -0.6 0
-14.7 -0.3 0
-14.7 0 0
-14.7 0.3 0
-14.7 0.6 0
-14.7 0.9 0
-14.7 1.2 0
-14.7 1.5 0
-14.7 1.8 0
-14.7 2.1 0
-14.7 2.4 0
-14.7 2.7 0
-14.7 3 0
-14.7 3.3 0
-14.7 3.6 0
-14.7 3.9 0
-14.7 4.2 0
-14.7 4.5 0
-14.7 4.8 0
-14.7 5.1 0
-14.7 5.4 0
-14.7 5.7 0
-14.7 6 0
-14.7 6.3 0
-14.7 6.6 0
-14.7 6.9 0
-14.7 7.2 0
-14.7 7.5 0
-14.7 7.8 0
-14.7 8.1 0
-14.7 8.4 0
-14.7 8.7 0
-14.7 9 0
-14.7 9.3 0
-14.7 9.6 0
-14.7 9.9 0
-14.7 10.2 0
-14.7 10.5 0
-14.7 10.8 0
-14.7 11.1 0
-14.7 11.4 0
-14.7 11.7 0
-14.7 12 0
-14.7 12.3 0
-14.7 12.6 0
-14.7 12.9 0
-14.7 13.2 0
-14.7 13.5 0
-14.7 13.8 0
-14.7 14.1 0
-14.7 14.4 0
-14.7 14.7 0
-14.7 15 0
-14.4 -15 0
-14.4 -14.7 0
-14.4 -14.4 0
-14.4 -14.1 0
-14.4 -13.8 0
-14.4 -13.5 0
-14.4 -13.2 0
-14.4 -12.9 0
-14.4 -12.6 0
-14.4 -12.3 0
-14.4 -12 0
-14.4 -11.7 0
-14.4 -11.4 0
-14.4 -11.1 0
-14.4 -10.8 0
-14.4 -10.5 0
-14.4 -10.2 0
-14.4 -9.9 0
-14.4 -9.6 0
-14.4 -9.3 0
-14.4 -9 0
-14.4 -8.7 0
-14.4 -8.4 0
-14.4 -8.1 0
-14.4 -7.8 0
-14.4 -7.5 0
-14.4 -7.2 0
-14.4 -6.9 0
-14.4 -6.6 0
-14.4 -6.3 0
-14.4 -6 0
-14.4 -5.7 0
-14.4 -5.4 0
-14.4 -5.1 0
-14.4 -4.8 0
-14.4 -4.5 0
-14.4 -4.2 0
-14.4 -3.9 0
-14.4 -3.6 0
-14.4 -3.3 0
-14.4 -3 0
-14.4 -2.7 0
-14.4 -2.4 0
-14.4 -2.1 0
-14.4 -1.8 0
-14.4 -1.5 0
-14.4 -1.2 0
-14.4 -0.9 0
-14.4 -0.6 0
-14.4 -0.3 0
-14.4 0 0
-14.4 0.3 0
-14.4 0.6 0
-14.4 0.9 0
-14.4 1.2 0
-14.4 1.5 0
-14.4 1.8 0
-14.4 2.1 0
-14.4 2.4 0
-14.4 2.7 0
-14.4 3 0
-14.4 3.3 0
-14.4 3.6 0
-14.4 3.9 0
-14.4 4.2 0
-14.4 4.5 0
-14.4 4.8 0
-14.4 5.1 0
-14.4 5.4 0
-14.4 5.7 0
-14.4 6 0
-14.4 6.3 0
-14.4 6.6 0
-14.4 6.9 0
-14.4 7.2 0
-14.4 7.5 0
-14.4 7.8 0
-14.4 8.1 0
-14.4 8.4 0
-14.4 8.7 0
-14.4 9 0
-14.4 9.3 0
-14.4 9.6 0
-14.4 9.9 0
-14.4 10.2 0
-14.4 10.5 0
-14.4 10.8 0
-14.4 11.1 0
-14.4 11.4 0
-14.4 11.7 0
-14.4 12 0
-14.4 12.3 0
-14.4 12.6 0
-14.4 12.9 0
-14.4 13.2 0
-14.4 13.5 0
-14.4 13.8 0
-14.4 14.1 0
-14.4 14.4 0
-14.4 14.7 0
-14.4 15 0
-14.1 -15 0
-14.1 -14.7 0
-14.1 -14.4 0
-14.1 -14.1 0
-14.1 -13.8 0
-14.1 -13.5 0
-14.1 -13.2 0
-14.1 -12.9 0
-14.1 -12.6 0
-14.1 -12.3 0
-14.1 -12 0
-14.1 -11.7 0
-14.1 -11.4 0
-14.1 -11.1 0
-14.1 -10.8 0
-14.1 -10.5 0
-14.1 -10.2 0
-14.1 -9.9 0
-14.1 -9.6 0
-14.1 -9.3 0
-14.1 -9 0
-14.1 -8.7 0
-14.1 -8.4 0
-14.1 -8.1 0
-14.1 -7.8 0
-14.1 -7.5 0
-14.1 -7.2 0
-14.1 -6.9 0
-14.1 -6.6 0
-14.1 -6.3 0
-14.1 -6 0
-14.1 -5.7 0
-14.1 -5.4 0
-14.1 -5.1 0
-14.1 -4.8 0
-14.1 -4.5 0
-14.1 -4.2 0
-14.1 -3.9 0
-14.1 -3.6 0
-14.1 -3.3 0
-14.1 -3 0
-14.1 -2.7 0
-14.1 -2.4 0
-14.1 -2.1 0
-14.1 -1.8 0
-14.1 -1.5 0
-14.1 -1.2 0
-14.1 -0.9 0
-14.1 -0.6 0
-14.1 -0.3 0
-14.1 0 0
-14.1 0.3 0
-14.1 0.6 0
-14.1 0.9 0
-14.1 1.2 0
-14.1 1.5 0
-14.1 1.8 0
-14.1 2.1 0
-14.1 2.4 0
-14.1 2.7 0
-14.1 3 0
-14.1 3.3 0
-14.1 3.6 0
-14.1 3.9 0
-14.1 4.2 0
-14.1 4.5 0
-14.1 4.8 0
-14.1 5.1 0
-14.1 5.4 0
-14.1 5.7 0
-14.1 6 0
-14.1 6.3 0
-14.1 6.6 0
-14.1 6.9 0
-14.1 7.2 0
-14.1 7.5 0
-14.1 7.8 0
-14.1 8.1 0
-14.1 8.4 0
-14.1 8.7 0
-14.1 9 0
-14.1 9.3 0
-14.1 9.6 0
-14.1 9.9 0
-14.1 10.2 0
-14.1 10.5 0
-14.1 10.8 0
-14.1 11.1 0
-14.1 11.4 0
-14.1 11.7 0
-14.1 12 0
-14.1 12.3 0
-14.1 12.6 0
-14.1 12.9 0
-14.1 13.2 0
-14.1 13.5 0
-14.1 13.8 0
-14.1 14.1 0
-14.1 14.4 0
-14.1 14.7 0
-14.1 15 0
-13.8 -15 0
-13.8 -14.7 0
-13.8 -14.4 0
-13.8 -14.1 0
-13.8 -13.8 0
-13.8 -13.5 0
-13.8 -13.2 0
-13.8 -12.9 0
-13.8 -12.6 0
-13.8 -12.3 0
-13.8 -12 0
-13.8 -11.7 0
-13.8 -11.4 0
-13.8 -11.1 0
-13.8 -10.8 0
-13.8 -10.5 0
-13.8 -10.2 0
-13.8 -9.9 0
-13.8 -9.6 0
-13.8 -9.3 0
-13.8 -9 0
-13.8 -8.7 0
-13.8 -8.4 0
-13.8 -8.1 0
-13.8 -7.8 0
-13.8 -7.5 0
-13.8 -7.2 0
-13.8 -6.9 0
-13.8 -6.6 0
-13.8 -6.3 0
-13.8 -6 0
-13.8 -5.7 0
-13.8 -5.4 0
-13.8 -5.1 0
-13.8 -4.8 0
-13.8 -4.5 0
-13.8 -4.2 0
-13.8 -3.9 0
-13.8 -3.6 0
-13.8 -3.3 0
-13.8 -3 0
-13.8 -2.7 0
-13.8 -2.4 0
-13.8 -2.1 0
-13.8 -1.8 0
-13.8 -1.5 0
-13.8 -1.2 0
-13.8 -0.9 0
-13.8 -0.6 0
-13.8 -0.3 0
-13.8 0 0
-13.8 0.3 0
-13.8 0.6 0
-13.8 0.9 0
-13.8 1.2 0
-13.8 1.5 0
-13.8 1.8 0
-13.8 2.1 0
-13.8 2.4 0
-13.8 2.7 0
-13.8 3 0
-13.8 3.3 0
-13.8 3.6 0
-13.8 3.9 0
-13.8 4.2 0
-13.8 4.5 0
-13.8 4.8 0
-13.8 5.1 0
-13.8 5.4 0
-13.8 5.7 0
-13.8 6 0
-13.8 6.3 0
-13.8 6.6 0
-13.8 6.9 0
-13.8 7.2 0
-13.8 7.5 0
-13.8 7.8 0
-13.8 8.1 0
-13.8 8.4 0
-13.8 8.7 0
-13.8 9 0
-13.8 9.3 0
-13.8 9.6 0
-13.8 9.9 0
-13.8 10.2 0
-13.8 10.5 0
-13.8 10.8 0
-13.8 11.1 0
-13.8 11.4 0
-13.8 11.7 0
-13.8 12 0
-13.8 12.3 0
-13.8 12.6 0
-13.8 12.9 0
-13.8 13.2 0
-13.8 13.5 0
-13.8 13.8 0
-13.8 14.1 0
-13.8 14.4 0
-13.8 14.7 0
-13.8 15 0
-13.5 -15 0
-13.5 -14.7 0
-13.5 -14.4 0
-13.5 -14.1 0
-13.5 -13.8 0
-13.5 -13.5 0
-13.5 -13.2 0
-13.5 -12.9 0
-13.5 -12.6 0
-13.5 -12.3 0
-13.5 -12 0
-13.5 -11.7 0
-13.5 -11.4 0
-13.5 -11.1 0
-13.5 -10.8 0
-13.5 -10.5 0
-13.5 -10.2 0
-13.5 -9.9 0
-13.5 -9.6 0
-13.5 -9.3 0
-13.5 -9 0
-13.5 -8.7 0
-13.5 -8.4 0
-13.5 -8.1 0
-13.5 -7.8 0
-13.5 -7.5 0
-13.5 -7.2 0
-13.5 -6.9 0
-13.5 -6.6 0
-13.5 -6.3 0
-13.5 -6 0
-13.5 -5.7 0
-13.5 -5.4 0
-13.5 -5.1 0
-13.5 -4.8 0
-13.5 -4.5 0
-13.5 -4.2 0
-13.5 -3.9 0
-13.5 -3.6 0
-13.5 -3.3 0
-13.5 -3 0
-13.5 -2.7 0
-13.5 -2.4 0
-13.5 -2.1 0
-13.5 -1.8 0
-13.5 -1.5 0
-13.5 -1.2 0
-13.5 -0.9 0
-13.5 -0.6 0
-13.5 -0.3 0
-13.5 0 0
-13.5 0.3 0
-13.5 0.6 0
-13.5 0.9 0
-13.5 1.2 0
-13.5 1.5 0
-13.5 1.8 0
-13.5 2.1 0
-13.5 2.4 0
-13.5 2.7 0
-13.5 3 0
-13.5 3.3 0
-13.5 3.6 0
-13.5 3.9 0
-13.5 4.2 0
-13.5 4.5 0
-13.5 4.8 0
-13.5 5.1 0
-13.5 5.4 0
-13.5 5.7 0
-13.5 6 0
-13.5 6.3 0
-13.5 6.6 0
-13.5 6.9 0
-13.5 7.2 0
-13.5 7.5 0
-13.5 7.8 0
-13.5 8.1 0
-13.5 8.4 0
-13.5 8.7 0
-13.5 9 0
-13.5 9.3 0
-13.5 9.6 0
-13.5 9.9 0
-13.5 10.2 0
-13.5 10.5 0
-13.5 10.8 0
-13.5 11.1 0
-13.5 11.4 0
-13.5 11.7 0
-13.5 12 0
-13.5 12.3 0
-13.5 12.6 0
-13.5 12.9 0
-13.5 13.2 0
-13.5 13.5 0
-13.5 13.8 0
-13.5 14.1 0
-13.5 14.4 0
-13.5 14.7 0
-13.5 15 0
-13.2 -15 0
-13.2 -14.7 0
-13.2 -14.4 0
-13.2 -14.1 0
-13.2 -13.8 0
-13.2 -13.5 0
-13.2 -13.2 0
-13.2 -12.9 0
-13.2 -12.6 0
-13.2 -12.3 0
-13.2 -12 0
-13.2 -11.7 0
-13.2 -11.4 0
-13.2 -11.1 0
-13.2 -10.8 0
-13.2 -10.5 0
-13.2 -10.2 0
-13.2 -9.9 0
-13.2 -9.6 0
-13.2 -9.3 0
-13.2 -9 0
-13.2 -8.7 0
-13.2 -8.4 0
-13.2 -8.1 0
-13.2 -7.8 0
-13.2 -7.5 0
-13.2 -7.2 0
-13.2 -6.9 0
-13.2 -6.6 0
-13.2 -6.3 0
-13.2 -6 0
-13.2 -5.7 0
-13.2 -5.4 0
-13.2 -5.1 0
-13.2 -4.8 0
-13.2 -4.5 0
-13.2 -4.2 0
-13.2 -3.9 0
-13.2 -3.6 0
-13.2 -3.3 0
-13.2 -3 0
-13.2 -2.7 0
-13.2 -2.4 0
-13.2 -2.1 0
-13.2 -1.8 0
-13.2 -1.5 0
-13.2 -1.2 0
-13.2 -0.9 0
-13.2 -0.6 0
-13.2 -0.3 0
-13.2 0 0
-13.2 0.3 0
-13.2 0.6 0
-13.2 0.9 0
-13.2 1.2 0
-13.2 1.5 0
-13.2 1.8 0
-13.2 2.1 0
-13.2 2.4 0
-13.2 2.7 0
-13.2 3 0
-13.2 3.3 0
-13.2 3.6 0
-13.2 3.9 0
-13.2 4.2 0
-13.2 4.5 0
-13.2 4.8 0
-13.2 5.1 0
-13.2 5.4 0
-13.2 5.7 0
-13.2 6 0
-13.2 6.3 0
-13.2 6.6 0
-13.2 6.9 0
-13.2 7.2 0
-13.2 7.5 0
-13.2 7.8 0
-13.2 8.1 0
-13.2 8.4 0
-13.2 8.7 0
-13.2 9 0
-13.2 9.3 0
-13.2 9.6 0
-13.2 9.9 0
-13.2 10.2 0
-13.2 10.5 0
-13.2 10.8 0
-13.2 11.1 0
-13.2 11.4 0
-13.2 11.7 0
-13.2 12 0
-13.2 12.3 0
-13.2 12.6 0
-13.2 12.9 0
-13.2 13.2 0
-13.2 13.5 0
-13.2 13.8 0
-13.2 14.1 0
-13.2 14.4 0
-13.2 14.7 0
-13.2 15 0
-12.9 -15 0
-12.9 -14.7 0
-12.9 -14.4 0
-12.9 -14.1 0
-12.9 -13.8 0
-12.9 -13.5 0
-12.9 -13.2 0
-12.9 -12.9 0
-12.9 -12.6 0
-12.9 -12.3 0
-12.9 -12 0
-12.9 -11.7 0
-12.9 -11.4 0
-12.9 -11.1 0
-12.9 -10.8 0
-12.9 -10.5 0
-12.9 -10.2 0
-12.9 -9.9 0
-12.9 -9.6 0
-12.9 -9.3 0
-12.9 -9 0
-12.9 -8.7 0
-12.9 -8.4 0
-12.9 -8.1 0
-12.9 -7.8 0
-12.9 -7.5 0
-12.9 -7.2 0
-12.9 -6.9 0
-12.9 -6.6 0
-12.9 -6.3 0
-12.9 -6 0
-12.9 -5.7 0
-12.9 -5.4 0
-12.9 -5.1 0
-12.9 -4.8 0
-12.9 -4.5 0
-12.9 -4.2 0
-12.9 -3.9 0
-12.9 -3.6 0
-12.9 -3.3 0
-12.9 -3 0
-12.9 -2.7 0
-12.9 -2.4 0
-12.9 -2.1 0
-12.9 -1.8 0
-12.9 -1.5 0
-12.9 -1.2 0
-12.9 -0.9 0
-12.9 -0.6 0
-12.9 -0.3 0
-12.9 0 0
-12.9 0.3 0
-12.9 0.6 0
-12.9 0.9 0
-12.9 1.2 0
-12.9 1.5 0
-12.9 1.8 0
-12.9 2.1 0
-12.9 2.4 0
-12.9 2.7 0
-12.9 3 0
-12.9 3.3 0
-12.9 3.6 0
-12.9 3.9 0
-12.9 4.2 0
-12.9 4.5 0
-12.9 4.8 0
-12.9 5.1 0
-12.9 5.4 0
-12.9 5.7 0
-12.9 6 0
-12.9 6.3 0
-12.9 6.6 0
-12.9 6.9 0
-12.9 7.2 0
-12.9 7.5 0
-12.9 7.8 0
-12.9 8.1 0
-12.9 8.4 0
-12.9 8.7 0
-12.9 9 0
[...]
            <PointData>
                <DataArray type="Float64" Name="c1" format="ascii">
0.00111236 0.00111348 0.00111686 0.00112249 0.00113036 0.00114045 0.00115276 0.00116726 0.00118393 0.00120274 0.00122367 0.00124668 0.00127172 0.00129876 0.00132773 0.00135858 0.00139126 0.00142568 0.00146177 0.00149945 0.00153862 0.00157918 0.00162103 0.00166404 0.0017081 0.00175306 0.00179879 0.00184513 0.00189192 0.00193899 0.00198618 0.00203329 0.00208013 0.00212651 0.00217224 0.0022171 0.00226089 0.0023034 0.00234442 0.00238376 0.00242121 0.00245657 0.00248965 0.00252028 0.00254829 0.00257352 0.00259583 0.00261509 0.00263119 0.00264405 0.00265359 0.00265977 0.00266255 0.00266193 0.00265793 0.00265057 0.00263992 0.00262606 0.00260908 0.0025891 0.00256625 0.00254068 0.00251256 0.00248205 0.00244935 0.00241466 0.00237816 0.00234008 0.00230062 0.00225999 0.00221842 0.0021761 0.00213326 0.00209009 0.0020468 0.00200359 0.00196064 0.00191814 0.00187625 0.00183515 0.00179499 0.00175592 0.00171808 0.00168161 0.00164661 0.00161321 0.00158151 0.0015516 0.00152358 0.00149753 0.0014735 0.00145158 0.00143182 0.00141426 0.00139896 0.00138595 0.00137527 0.00136693 0.00136096 0.00135737 0.00135618 
0.00111327 0.0011144 0.00111779 0.00112343 0.00113131 0.00114143 0.00115377 0.0011683 0.00118501 0.00120387 0.00122485 0.00124792 0.00127302 0.00130013 0.00132917 0.00136011 0.00139287 0.00142739 0.00146358 0.00150136 0.00154065 0.00158133 0.00162331 0.00166645 0.00171065 0.00175576 0.00180164 0.00184813 0.00189509 0.00194233 0.00198968 0.00203696 0.00208398 0.00213054 0.00217645 0.00222148 0.00226545 0.00230814 0.00234933 0.00238884 0.00242645 0.00246196 0.00249519 0.00252596 0.00255409 0.00257943 0.00260184 0.00262118 0.00263736 0.00265027 0.00265986 0.00266606 0.00266885 0.00266822 0.00266419 0.00265679 0.00264609 0.00263215 0.00261509 0.002595 0.00257204 0.00254635 0.00251809 0.00248744 0.00245458 0.00241973 0.00238307 0.00234481 0.00230518 0.00226438 0.00222262 0.00218013 0.00213712 0.00209378 0.00205032 0.00200694 0.00196383 0.00192117 0.00187913 0.00183788 0.00179759 0.00175838 0.00172042 0.00168382 0.00164871 0.0016152 0.0015834 0.00155341 0.0015253 0.00149917 0.00147507 0.00145309 0.00143327 0.00141566 0.00140032 0.00138727 0.00137656 0.0013682 0.00136221 0.00135861 0.00135741 
0.00111602 0.00111715 0.00112056 0.00112624 0.00113418 0.00114437 0.00115679 0.00117143 0.00118826 0.00120726 0.00122839 0.00125163 0.00127692 0.00130424 0.00133351 0.00136469 0.00139772 0.00143252 0.00146901 0.00150712 0.00154674 0.00158779 0.00163015 0.00167369 0.00171831 0.00176386 0.00181019 0.00185716 0.00190459 0.00195234 0.0020002 0.002048 0.00209555 0.00214265 0.00218909 0.00223466 0.00227916 0.00232237 0.00236409 0.00240409 0.00244219 0.00247816 0.00251183 0.00254301 0.00257152 0.0025972 0.00261991 0.00263952 0.00265591 0.00266899 0.0026787 0.00268497 0.00268779 0.00268713 0.00268302 0.0026755 0.00266462 0.00265047 0.00263314 0.00261275 0.00258944 0.00256337 0.0025347 0.00250361 0.0024703 0.00243496 0.0023978 0.00235903 0.00231888 0.00227755 0.00223527 0.00219225 0.0021487 0.00210485 0.00206088 0.002017 0.0019734 0.00193027 0.00188777 0.00184609 0.00180537 0.00176577 0.00172742 0.00169046 0.00165501 0.00162119 0.00158909 0.00155882 0.00153046 0.00150409 0.00147978 0.00145761 0.00143762 0.00141986 0.00140439 0.00139123 0.00138043 0.001372 0.00136596 0.00136234 0.00136113 
0.00112058 0.00112173 0.00112518 0.00113093 0.00113896 0.00114926 0.00116183 0.00117664 0.00119367 0.0012129 0.00123429 0.00125781 0.00128342 0.00131108 0.00134073 0.00137232 0.00140579 0.00144106 0.00147806 0.00151671 0.00155691 0.00159856 0.00164155 0.00168577 0.00173108 0.00177736 0.00182446 0.00187221 0.00192046 0.00196904 0.00201776 0.00206644 0.00211488 0.00216287 0.00221021 0.00225668 0.00230207 0.00234617 0.00238875 0.0024296 0.00246851 0.00250526 0.00253967 0.00257153 0.00260067 0.00262693 0.00265015 0.00267019 0.00268695 0.00270032 0.00271023 0.00271663 0.00271948 0.00271878 0.00271454 0.00270681 0.00269563 0.00268111 0.00266333 0.00264243 0.00261855 0.00259184 0.00256249 0.00253066 0.00249657 0.00246042 0.00242242 0.0023828 0.00234177 0.00229955 0.00225638 0.00221248 0.00216805 0.00212332 0.0020785 0.00203379 0.00198937 0.00194545 0.00190219 0.00185977 0.00181835 0.00177808 0.00173909 0.00170153 0.00166551 0.00163116 0.00159856 0.00156783 0.00153904 0.00151228 0.00148762 0.00146513 0.00144485 0.00142685 0.00141116 0.00139782 0.00138687 0.00137832 0.00137221 0.00136853 0.0013673 
0.00112696 0.00112813 0.00113163 0.00113747 0.00114562 0.0011561 0.00116887 0.00118392 0.00120123 0.00122078 0.00124253 0.00126645 0.0012925 0.00132065 0.00135083 0.00138299 0.00141708 0.00145301 0.00149073 0.00153013 0.00157113 0.00161363 0.00165752 0.00170269 0.00174899 0.0017963 0.00184446 0.00189333 0.00194273 0.00199248 0.00204241 0.00209232 0.00214201 0.00219126 0.00223987 0.00228762 0.00233428 0.00237962 0.00242343 0.00246547 0.00250553 0.00254339 0.00257884 0.00261167 0.00264172 0.00266878 0.00269272 0.00271339 0.00273066 0.00274444 0.00275464 0.00276121 0.00276412 0.00276335 0.00275893 0.0027509 0.00273931 0.00272426 0.00270586 0.00268423 0.00265953 0.00263192 0.00260158 0.00256872 0.00253353 0.00249623 0.00245705 0.00241621 0.00237394 0.00233048 0.00228605 0.00224089 0.00219522 0.00214926 0.00210323 0.00205734 0.00201177 0.00196674 0.0019224 0.00187895 0.00183654 0.00179532 0.00175544 0.00171703 0.00168022 0.00164511 0.00161182 0.00158044 0.00155105 0.00152375 0.00149859 0.00147565 0.00145497 0.00143662 0.00142062 0.00140703 0.00139587 0.00138716 0.00138093 0.00137718 0.00137593 
0.00113513 0.00113632 0.00113989 0.00114585 0.00115417 0.00116486 0.00117789 0.00119325 0.00121092 0.00123088 0.00125309 0.00127753 0.00130416 0.00133293 0.00136379 0.0013967 0.00143158 0.00146838 0.00150701 0.00154739 0.00158943 0.00163303 0.00167808 0.00172446 0.00177204 0.00182068 0.00187023 0.00192054 0.00197142 0.00202271 0.00207421 0.00212572 0.00217703 0.00222793 0.0022782 0.0023276 0.0023759 0.00242287 0.00246828 0.00251188 0.00255344 0.00259273 0.00262954 0.00266366 0.00269487 0.00272301 0.00274789 0.00276937 0.00278732 0.00280162 0.00281221 0.00281901 0.00282198 0.00282113 0.00281647 0.00280804 0.00279591 0.00278017 0.00276095 0.00273837 0.0027126 0.00268381 0.0026522 0.00261797 0.00258135 0.00254255 0.00250182 0.0024594 0.00241552 0.00237042 0.00232436 0.00227757 0.00223028 0.00218273 0.00213513 0.0020877 0.00204065 0.00199416 0.00194844 0.00190365 0.00185995 0.00181751 0.00177647 0.00173696 0.00169912 0.00166304 0.00162885 0.00159663 0.00156648 0.00153846 0.00151267 0.00148914 0.00146795 0.00144914 0.00143276 0.00141884 0.00140741 0.00139849 0.00139211 0.00138827 0.001387 
0.00114507 0.00114629 0.00114995 0.00115605 0.00116457 0.00117552 0.00118887 0.00120461 0.00122273 0.00124319 0.00126597 0.00129105 0.00131837 0.00134791 0.00137961 0.00141342 0.00144929 0.00148714 0.00152689 0.00156848 0.0016118 0.00165675 0.00170323 0.00175111 0.00180026 0.00185055 0.00190181 0.00195389 0.00200662 0.00205979 0.00211323 0.00216672 0.00222005 0.00227299 0.0023253 0.00237676 0.00242711 0.0024761 0.00252349 0.00256903 0.00261246 0.00265355 0.00269206 0.00272776 0.00276044 0.0027899 0.00281596 0.00283845 0.00285725 0.00287222 0.00288328 0.00289036 0.00289343 0.00289247 0.0028875 0.00287858 0.00286577 0.00284918 0.00282892 0.00280516 0.00277805 0.00274779 0.00271459 0.00267867 0.00264026 0.0025996 0.00255694 0.00251254 0.00246666 0.00241954 0.00237145 0.00232264 0.00227334 0.00222381 0.00217427 0.00212495 0.00207605 0.00202778 0.00198033 0.00193388 0.00188861 0.00184466 0.00180219 0.00176133 0.00172222 0.00168495 0.00164965 0.0016164 0.0015853 0.00155642 0.00152983 0.0015056 0.00148378 0.00146441 0.00144755 0.00143322 0.00142146 0.00141229 0.00140572 0.00140178 0.00140047 
0.00115676 0.00115801 0.00116178 0.00116804 0.00117681 0.00118806 0.00120179 0.00121799 0.00123662 0.00125768 0.00128114 0.00130696 0.00133512 0.00136557 0.00139826 0.00143316 0.00147018 0.00150928 0.00155038 0.00159339 0.00163823 0.0016848 0.00173298 0.00178265 0.00183368 0.00188593 0.00193924 0.00199345 0.00204837 0.00210381 0.00215957 0.00221544 0.00227118 0.00232657 0.00238136 0.00243528 0.0024881 0.00253953 0.00258932 0.00263719 0.00268288 0.00272614 0.0027667 0.00280432 0.00283877 0.00286984 0.00289733 0.00292106 0.00294087 0.00295665 0.00296829 0.00297572 0.00297889 0.0029778 0.00297247 0.00296295 0.00294931 0.00293168 0.00291018 0.00288497 0.00285625 0.00282421 0.00278909 0.00275111 0.00271054 0.00266762 0.00262264 0.00257586 0.00252756 0.002478 0.00242747 0.00237622 0.00232452 0.00227261 0.00222074 0.00216914 0.00211803 0.00206762 0.00201812 0.00196969 0.00192253 0.00187678 0.00183261 0.00179014 0.00174951 0.00171082 0.0016742 0.00163973 0.0016075 0.00157759 0.00155006 0.00152499 0.00150241 0.00148239 0.00146496 0.00145015 0.001438 0.00142852 0.00142174 0.00141767 0.00141631 
0.00117017 0.00117146 0.00117534 0.0011818 0.00119084 0.00120245 0.00121662 0.00123334 0.00125258 0.00127433 0.00129857 0.00132526 0.00135438 0.00138588 0.00141973 0.00145587 0.00149425 0.0015348 0.00157746 0.00162213 0.00166874 0.00171718 0.00176734 0.0018191 0.00187232 0.00192687 0.00198257 0.00203926 0.00209676 0.00215485 0.00221334 0.002272 0.00233058 0.00238885 0.00244654 0.00250338 0.0025591 0.00261341 0.00266603 0.00271667 0.00276504 0.00281086 0.00285385 0.00289376 0.00293032 0.0029633 0.00299248 0.00301767 0.0030387 0.00305544 0.00306776 0.0030756 0.0030789 0.00307766 0.00307189 0.00306166 0.00304704 0.00302817 0.00300518 0.00297826 0.00294762 0.00291347 0.00287606 0.00283565 0.00279251 0.00274693 0.0026992 0.00264961 0.00259845 0.00254602 0.0024926 0.00243849 0.00238395 0.00232925 0.00227464 0.00222037 0.00216667 0.00211376 0.00206184 0.00201111 0.00196173 0.00191389 0.00186772 0.00182338 0.00178098 0.00174065 0.00170249 0.0016666 0.00163306 0.00160195 0.00157333 0.00154728 0.00152384 0.00150305 0.00148496 0.00146959 0.00145699 0.00144716 0.00144013 0.00143591 0.0014345 
0.00118525 0.00118659 0.0011906 0.00119729 0.00120665 0.00121866 0.00123333 0.00125063 0.00127056 0.0012931 0.00131822 0.0013459 0.00137612 0.00140882 0.00144398 0.00148155 0.00152147 0.00156368 0.00160811 0.00165469 0.00170332 0.0017539 0.00180633 0.00186048 0.00191622 0.0019734 0.00203185 0.00209141 0.00215186 0.00221302 0.00227466 0.00233654 0.00239841 0.00246002 0.00252107 0.00258129 0.00264039 0.00269805 0.00275396 0.00280782 0.00285931 0.00290813 0.00295397 0.00299654 0.00303557 0.00307078 0.00310195 0.00312886 0.00315133 0.00316919 0.00318232 0.00319064 0.00319409 0.00319266 0.00318638 0.00317531 0.00315954 0.00313921 0.00311449 0.00308556 0.00305266 0.00301604 0.00297595 0.0029327 0.00288657 0.00283788 0.00278694 0.00273407 0.00267959 0.00262382 0.00256706 0.00250962 0.00245179 0.00239386 0.00233609 0.00227874 0.00222205 0.00216626 0.00211156 0.00205816 0.00200625 0.001956 0.00190755 0.00186105 0.00181664 0.00177442 0.0017345 0.00169698 0.00166194 0.00162947 0.00159961 0.00157244 0.001548 0.00152634 0.0015075 0.0014915 0.00147838 0.00146816 0.00146084 0.00145645 0.00145498 
0.00120198 0.00120337 0.00120753 0.00121447 0.00122417 0.00123664 0.00125186 0.00126983 0.00129053 0.00131395 0.00134007 0.00136886 0.0014003 0.00143435 0.00147098 0.00151015 0.00155181 0.00159588 0.00164232 0.00169104 0.00174195 0.00179496 0.00184996 0.00190682 0.00196541 0.00202557 0.00208715 0.00214995 0.00221378 0.00227843 0.00234366 0.00240922 0.00247485 0.00254027 0.00260519 0.00266929 0.00273226 0.00279377 0.00285348 0.00291106 0.00296616 0.00301844 0.00306757 0.00311323 0.00315511 0.00319292 0.0032264 0.0032553 0.00327942 0.00329859 0.00331266 0.00332154 0.00332517 0.00332353 0.00331665 0.0033046 0.00328749 0.00326547 0.00323872 0.00320747 0.00317196 0.00313246 0.00308929 0.00304274 0.00299315 0.00294087 0.00288623 0.00282958 0.00277128 0.00271167 0.00265107 0.00258982 0.00252823 0.0024666 0.00240522 0.00234435 0.00228425 0.00222517 0.00216732 0.0021109 0.00205611 0.00200312 0.00195208 0.00190315 0.00185645 0.0018121 0.0017702 0.00173085 0.00169412 0.0016601 0.00162885 0.00160042 0.00157487 0.00155223 0.00153254 0.00151584 0.00150214 0.00149146 0.00148382 0.00147924 0.00147771 
0.0012203 0.00122174 0.00122607 0.00123329 0.00124338 0.00125635 0.00127219 0.00129089 0.00131244 0.00133684 0.00136405 0.00139408 0.00142688 0.00146243 0.0015007 0.00154165 0.00158523 0.00163139 0.00168006 0.00173117 0.00178463 0.00184036 0.00189823 0.00195812 0.00201991 0.00208343 0.00214851 0.00221498 0.00228261 0.00235119 0.00242048 0.00249021 0.0025601 0.00262985 0.00269915 0.00276767 0.00283506 0.00290096 0.00296501 0.00302684 0.00308606 0.00314231 0.00319522 0.00324443 0.0032896 0.0033304 0.00336653 0.00339774 0.00342377 0.00344445 0.0034596 0.00346913 0.00347295 0.00347107 0.0034635 0.00345033 0.00343167 0.0034077 0.00337862 0.00334468 0.00330616 0.00326336 0.00321663 0.0031663 0.00311275 0.00305634 0.00299747 0.00293652 0.00287386 0.00280986 0.0027449 0.00267931 0.00261345 0.00254763 0.00248215 0.00241731 0.00235336 0.00229057 0.00222916 0.00216935 0.00211132 0.00205526 0.00200133 0.00194967 0.00190041 0.00185367 0.00180956 0.00176816 0.00172955 0.00169382 0.00166101 0.00163118 0.00160439 0.00158066 0.00156003 0.00154254 0.00152819 0.00151702 0.00150903 0.00150423 0.00150263 
0.00124016 0.00124167 0.00124618 0.00125369 0.00126421 0.00127773 0.00129425 0.00131375 0.00133624 0.00136171 0.00139014 0.00142151 0.00145581 0.00149301 0.00153309 0.001576 0.00162171 0.00167017 0.00172131 0.00177506 0.00183135 0.00189008 0.00195114 0.00201441 0.00207975 0.002147 0.00221601 0.00228656 0.00235844 0.00243143 0.00250527 0.00257968 0.00265436 0.002729 0.00280325 0.00287676 0.00294915 0.00302003 0.003089 0.00315566 0.00321958 0.00328036 0.00333758 0.00339085 0.00343977 0.00348399 0.00352318 0.00355702 0.00358526 0.00360766 0.00362406 0.00363433 0.00363839 0.00363622 0.00362786 0.00361339 0.00359295 0.00356674 0.00353499 0.00349797 0.003456 0.00340943 0.00335862 0.00330398 0.0032459 0.00318481 0.00312113 0.00305528 0.00298767 0.00291871 0.00284881 0.00277833 0.00270765 0.00263711 0.00256704 0.00249773 0.00242947 0.00236253 0.00229715 0.00223354 0.00217191 0.00211243 0.00205527 0.00200058 0.00194849 0.0018991 0.00185254 0.00180887 0.00176819 0.00173055 0.00169603 0.00166466 0.00163649 0.00161157 0.00158991 0.00157154 0.00155649 0.00154476 0.00153638 0.00153135 0.00152967 
0.00126151 0.00126308 0.00126779 0.00127563 0.00128661 0.00130073 0.00131798 0.00133837 0.00136188 0.00138851 0.00141826 0.00145111 0.00148704 0.00152605 0.0015681 0.00161316 0.0016612 0.00171217 0.00176602 0.00182268 0.00188207 0.00194411 0.00200868 0.00207567 0.00214494 0.00221634 0.00228968 0.00236477 0.00244138 0.00251928 0.00259819 0.00267783 0.00275787 0.00283797 0.00291778 0.0029969 0.00307492 0.00315142 0.00322596 0.00329808 0.00336733 0.00343325 0.00349537 0.00355325 0.00360646 0.00365459 0.00369725 0.00373411 0.00376486 0.00378925 0.00380708 0.00381819 0.00382252 0.00382002 0.00381075 0.0037948 0.00377233 0.00374355 0.00370874 0.0036682 0.0036223 0.00357142 0.00351598 0.00345643 0.00339322 0.00332681 0.00325768 0.0031863 0.00311311 0.00303857 0.0029631 0.00288714 0.00281106 0.00273524 0.00266002 0.00258573 0.00251268 0.00244112 0.00237132 0.00230351 0.00223788 0.00217462 0.0021139 0.00205587 0.00200065 0.00194835 0.00189909 0.00185293 0.00180997 0.00177025 0.00173384 0.00170079 0.00167112 0.00164488 0.00162209 0.00160278 0.00158695 0.00157463 0.00156582 0.00156053 0.00155877 
0.00128428 0.00128592 0.00129084 0.00129904 0.00131052 0.00132529 0.00134333 0.00136466 0.00138928 0.00141717 0.00144835 0.0014828 0.00152051 0.00156147 0.00160566 0.00165306 0.00170363 0.00175735 0.00181415 0.00187398 0.00193676 0.00200242 0.00207084 0.00214192 0.00221551 0.00229146 0.00236958 0.00244967 0.00253151 0.00261485 0.00269939 0.00278484 0.00287084 0.00295705 0.00304306 0.00312846 0.0032128 0.00329561 0.00337641 0.0034547 0.00352997 0.00360169 0.00366937 0.00373249 0.00379057 0.00384314 0.00388977 0.00393007 0.0039637 0.00399035 0.00400981 0.00402189 0.00402652 0.00402366 0.00401334 0.0039957 0.0039709 0.0039392 0.00390089 0.00385635 0.00380597 0.00375019 0.0036895 0.00362438 0.00355536 0.00348295 0.00340768 0.00333005 0.00325059 0.00316978 0.0030881 0.00300599 0.00292389 0.00284218 0.00276125 0.00268144 0.00260306 0.0025264 0.00245172 0.00237926 0.00230923 0.00224182 0.00217719 0.00211549 0.00205684 0.00200137 0.00194915 0.00190028 0.00185483 0.00181284 0.00177439 0.00173949 0.0017082 0.00168053 0.00165652 0.00163617 0.0016195 0.00160653 0.00159726 0.00159169 0.00158984 
0.00130841 0.00131012 0.00131527 0.00132385 0.00133587 0.00135133 0.00137023 0.00139257 0.00141838 0.00144763 0.00148034 0.00151651 0.00155613 0.0015992 0.00164571 0.00169563 0.00174895 0.00180563 0.00186564 0.00192891 0.00199538 0.00206498 0.0021376 0.00221314 0.00229145 0.00237238 0.00245574 0.00254134 0.00262893 0.00271826 0.00280902 0.0029009 0.00299352 0.00308651 0.00317943 0.00327183 0.00336323 0.00345311 0.00354094 0.00362616 0.0037082 0.00378649 0.00386045 0.00392951 0.00399311 0.00405073 0.00410187 0.00414609 0.00418299 0.00421223 0.00423354 0.00424674 0.00425172 0.00424843 0.00423692 0.00421734 0.00418989 0.00415485 0.00411258 0.00406347 0.004008 0.00394668 0.00388003 0.00380862 0.00373304 0.00365386 0.00357167 0.00348705 0.00340056 0.00331274 0.00322411 0.00313517 0.00304636 0.00295813 0.00287087 0.00278495 0.00270069 0.00261841 0.00253837 0.00246082 0.00238597 0.00231401 0.0022451 0.0021794 0.00211703 0.00205808 0.00200266 0.00195084 0.00190269 0.00185825 0.00181757 0.00178069 0.00174764 0.00171843 0.00169309 0.00167163 0.00165406 0.00164038 0.00163061 0.00162475 0.0016228 
0.00133381 0.0013356 0.00134099 0.00134998 0.00136257 0.00137877 0.00139858 0.00142202 0.00144909 0.0014798 0.00151416 0.00155217 0.00159384 0.00163917 0.00168816 0.0017408 0.00179707 0.00185696 0.00192041 0.00198741 0.00205787 0.00213174 0.00220891 0.00228929 0.00237274 0.0024591 0.0025482 0.00263981 0.00273371 0.00282962 0.00292723 0.00302619 0.00312613 0.00322662 0.00332721 0.00342741 0.00352667 0.00362445 0.00372015 0.00381315 0.00390282 0.0039885 0.00406956 0.00414533 0.00421519 0.00427854 0.00433481 0.00438349 0.00442411 0.0044563 0.00447974 0.00449421 0.00449957 0.0044958 0.00448294 0.00446115 0.00443068 0.00439184 0.00434504 0.00429075 0.00422951 0.00416189 0.0040885 0.00400999 0.00392701 0.00384023 0.00375028 0.00365782 0.00356348 0.00346784 0.00337148 0.00327494 0.00317871 0.00308326 0.00298902 0.00289636 0.00280565 0.0027172 0.00263129 0.00254817 0.00246806 0.00239114 0.00231759 0.00224754 0.00218112 0.00211842 0.00205954 0.00200453 0.00195346 0.00190638 0.00186331 0.00182429 0.00178934 0.00175848 0.00173172 0.00170906 0.00169052 0.00167609 0.00166579 0.00165961 0.00165754 
0.0013604 0.00136229 0.00136794 0.00137736 0.00139056 0.00140754 0.00142832 0.00145292 0.00148134 0.00151359 0.00154971 0.00158968 0.00163354 0.00168129 0.00173294 0.00178848 0.00184792 0.00191123 0.0019784 0.00204939 0.00212415 0.00220262 0.00228472 0.00237034 0.00245936 0.00255162 0.00264694 0.00274512 0.00284591 0.00294902 0.00305414 0.00316089 0.00326889 0.00337767 0.00348675 0.00359559 0.00370362 0.0038102 0.0039147 0.00401641 0.00411464 0.00420864 0.00429769 0.00438106 0.00445801 0.00452786 0.00458996 0.00464371 0.00468858 0.00472413 0.00474999 0.00476591 0.00477173 0.0047674 0.004753 0.00472869 0.00469476 0.00465159 0.00459965 0.00453948 0.00447168 0.00439694 0.00431594 0.00422942 0.00413812 0.00404278 0.00394414 0.00384292 0.00373981 0.00363548 0.00353054 0.00342558 0.00332115 0.00321774 0.00311581 0.00301577 0.00291799 0.0028228 0.00273048 0.0026413 0.00255546 0.00247317 0.00239458 0.00231984 0.00224904 0.0021823 0.00211968 0.00206125 0.00200705 0.00195712 0.00191149 0.00187018 0.00183321 0.00180058 0.00177229 0.00174836 0.00172878 0.00171356 0.00170268 0.00169615 0.00169398 