<?xml version="1.0"?>
<VTKFile type="StructuredGrid" version="0.1">
    <StructuredGrid WholeExtent="0 100 0 100 0 0">
        <Piece Extent="0 100 0 100 0 0">
            <Points>
                <DataArray type="Float64" NumberOfComponents="3" format="ascii">
-15 -15 0
-15 -14.7 0
-15 -14.4 0
-15 -14.1 0
-15 -13.8 0
-15 -13.5 0
-15 -13.2 0
-15 -12.9 0
-15 -12.6 0
-15 -12.3 0
-15 -12 0
-15 -11.7 0
-15 -11.4 0
-15 -11.1 0
-15 -10.8 0
-15 -10.5 0
-15 -10.2 0
-15 -9.9 0
-15 -9.6 0
-15 -9.3 0
-15 -9 0
-15 -8.7 0
-15 -8.4 0
-15 -8.1 0
-15 -7.8 0
-15 -7.5 0
-15 -7.2 0
-15 -6.9 0
-15 -6.6 0
-15 -6.3 0
-15 -6 0
-15 -5.7 0
-15 -5.4 0
-15 -5.1 0
-15 -4.8 0
-15 -4.5 0
-15 -4.2 0
-15 -3.9 0
-15 -3.6 0
-15 -3.3 0
-15 -3 0
-15 -2.7 0
-15 -2.4 0
-15 -2.1 0
-15 -1.8 0
-15 -1.5 0
-15 -1.2 0
-15 -0.9 0
-15 -0.6 0
-15 -0.3 0
-15 0 0
-15 0.3 0
-15 0.6 0
-15 0.9 0
-15 1.2 0
-15 1.5 0
-15 1.8 0
-15 2.1 0
-15 2.4 0
-15 2.7 0
-15 3 0
-15 3.3 0
-15 3.6 0
-15 3.9 0
-15 4.2 0
-15 4.5 0
-15 4.8 0
-15 5.1 0
-15 5.4 0
-15 5.7 0
-15 6 0
-15 6.3 0
-15 6.6 0
-15 6.9 0
-15 7.2 0
-15 7.5 0
-15 7.8 0
-15 8.1 0
-15 8.4 0
-15 8.7 0
-15 9 0
-15 9.3 0
-15 9.6 0
-15 9.9 0
-15 10.2 0
-15 10.5 0
-15 10.8 0
-15 11.1 0
-15 11.4 0
-15 11.7 0
-15 12 0
-15 12.3 0
-15 12.6 0
-15 12.9 0
-15 13.2 0
-15 13.5 0
-15 13.8 0
-15 14.1 0
-15 14.4 0
-15 14.7 0
-15 15 0
-14.7 -15 0
-14.7 -14.7 0
-14.7 -14.4 0
-14.7 -14.1 0
-14.7 -13.8 0
-14.7 -13.5 0
-14.7 -13.2 0
-14.7 -12.9 0
-14.7 -12.6 0
-14.7 -12.3 0
-14.7 -12 0
-14.7 -11.7 0
-14.7 -11.4 0
-14.7 -11.1 0
-14.7 -10.8 0
-14.7 -10.5 0
-14.7 -10.2 0
-14.7 -9.9 0
-14.7 -9.6 0
-14.7 -9.3 0
-14.7 -9 0
-14.7 -8.7 0
-14.7 -8.4 0
-14.7 -8.1 0
-14.7 -7.8 0
-14.7 -7.5 0
-14.7 -7.2 0
-14.7 -6.9 0
-14.7 -6.6 0
-14.7 -6.3 0
-14.7 -6 0
-14.7 -5.7 0
-14.7 -5.4 0
-14.7 -5.1 0
-14.7 -4.8 0
-14.7 -4.5 0
-14.7 -4.2 0
-14.7 -3.9 0
-14.7 -3.6 0
-14.7 -3.3 0
-14.7 -3 0
-14.7 -2.7 0
-14.7 -2.4 0
-14.7 -2.1 0
-14.7 -1.8 0
-14.7 -1.5 0
-14.7 -1.2 0
-14.7 -0.9 0
-14.7 -0.6 0
-14.7 -0.3 0
-14.7 0 0
-14.7 0.3 0
-14.7 0.6 0
-14.7 0.9 0
-14.7 1.2 0
-14.7 1.5 0
-14.7 1.8 0
-14.7 2.1 0
-14.7 2.4 0
-14.7 2.7 0
-14.7 3 0
-14.7 3.3 0
-14.7 3.6 0
-14.7 3.9 0
-14.7 4.2 0
-14.7 4.5 0
-14.7 4.8 0
-14.7 5.1 0
-14.7 5.4 0
-14.7 5.7 0
-14.7 6 0
-14.7 6.3 0
-14.7 6.6 0
-14.7 6.9 0
-14.7 7.2 0
-14.7 7.5 0
-14.7 7.8 0
-14.7 8.1 0
-14.7 8.4 0
-14.7 8.7 0
-14.7 9 0
-14.7 9.3 0
-14.7 9.6 0
-14.7 9.9 0
-14.7 10.2 0
-14.7 10.5 0
-14.7 10.8 0
-14.7 11.1 0
-14.7 11.4 0
-14.7 11.7 0
-14.7 12 0
-14.7 12.3 0
-14.7 12.6 0
-14.7 12.9 0
-14.7 13.2 0
-14.7 13.5 0
-14.7 13.8 0
-14.7 14.1 0
-14.7 14.4 0
-14.7 14.7 0
-14.7 15 0
-14.4 -15 0
-14.4 -14.7 0
-14.4 -14.4 0
-14.4 -14.1 0
-14.4 -13.8 0
-14.4 -13.5 0
-14.4 -13.2 0
-14.4 -12.9 0
-14.4 -12.6 0
-14.4 -12.3 0
-14.4 -12 0
-14.4 -11.7 0
-14.4 -11.4 0
-14.4 -11.1 0
-14.4 -10.8 0
-14.4 -10.5 0
-14.4 -10.2 0
-14.4 -9.9 0
-14.4 -9.6 0
-14.4 -9.3 0
-14.4 -9 0
-14.4 -8.7 0
-14.4 -8.4 0
-14.4 -8.1 0
-14.4 -7.8 0
-14.4 -7.5 0
-14.4 -7.2 0
-14.4 -6.9 0
-14.4 -6.6 0
-14.4 -6.3 0
-14.4 -6 0
-14.4 -5.7 0
-14.4 -5.4 0
-14.4 -5.1 0
-14.4 -4.8 0
-14.4 -4.5 0
-14.4 -4.2 0
-14.4 -3.9 0
-14.4 -3.6 0
-14.4 -3.3 0
-14.4 -3 0
-14.4 -2.7 0
-14.4 -2.4 0
-14.4 -2.1 0
-14.4 -1.8 0
-14.4 -1.5 0
-14.4 -1.2 0
-14.4 -0.9 0
-14.4 -0.6 0
-14.4 -0.3 0
-14.4 0 0
-14.4 0.3 0
-14.4 0.6 0
-14.4 0.9 0
-14.4 1.2 0
-14.4 1.5 0
-14.4 1.8 0
-14.4 2.1 0
-14.4 2.4 0
-14.4 2.7 0
-14.4 3 0
-14.4 3.3 0
-14.4 3.6 0
-14.4 3.9 0
-14.4 4.2 0
-14.4 4.5 0
-14.4 4.8 0
-14.4 5.1 0
-14.4 5.4 0
-14.4 5.7 0
-14.4 6 0
-14.4 6.3 0
-14.4 6.6 0
-14.4 6.9 0
-14.4 7.2 0
-14.4 7.5 0
-14.4 7.8 0
-14.4 8.1 0
-14.4 8.4 0
-14.4 8.7 0
-14.4 9 0
-14.4 9.3 0
-14.4 9.6 0
-14.4 9.9 0
-14.4 10.2 0
-14.4 10.5 0
-14.4 10.8 0
-14.4 11.1 0
-14.4 11.4 0
-14.4 11.7 0
-14.4 12 0
-14.4 12.3 0
-14.4 12.6 0
-14.4 12.9 0
-14.4 13.2 0
-14.4 13.5 0
-14.4 13.8 0
-14.4 14.1 0
-14.4 14.4 0
-14.4 14.7 0
-14.4 15 0
-14.1 -15 0
-14.1 -14.7 0
-14.1 -14.4 0
-14.1 -14.1 0
-14.1 -13.8 0
-14.1 -13.5 0
-14.1 -13.2 0
-14.1 -12.9 0
-14.1 -12.6 0
-14.1 -12.3 0
-14.1 -12 0
-14.1 -11.7 0
-14.1 -11.4 0
-14.1 -11.1 0
-14.1 -10.8 0
-14.1 -10.5 0
-14.1 -10.2 0
-14.1 -9.9 0
-14.1 -9.6 0
-14.1 -9.3 0
-14.1 -9 0
-14.1 -8.7 0
-14.1 -8.4 0
-14.1 -8.1 0
-14.1 -7.8 0
-14.1 -7.5 0
-14.1 -7.2 0
-14.1 -6.9 0
-14.1 -6.6 0
-14.1 -6.3 0
-14.1 -6 0
-14.1 -5.7 0
-14.1 -5.4 0
-14.1 -5.1 0
-14.1 -4.8 0
-14.1 -4.5 0
-14.1 -4.2 0
-14.1 -3.9 0
-14.1 -3.6 0
-14.1 -3.3 0
-14.1 -3 0
-14.1 -2.7 0
-14.1 -2.4 0
-14.1 -2.1 0
-14.1 -1.8 0
-14.1 -1.5 0
-14.1 -1.2 0
-14.1 -0.9 0
-14.1 -0.6 0
-14.1 -0.3 0
-14.1 0 0
-14.1 0.3 0
-14.1 0.6 0
-14.1 0.9 0
-14.1 1.2 0
-14.1 1.5 0
-14.1 1.8 0
-14.1 2.1 0
-14.1 2.4 0
-14.1 2.7 0
-14.1 3 0
-14.1 3.3 0
-14.1 3.6 0
-14.1 3.9 0
-14.1 4.2 0
-14.1 4.5 0
-14.1 4.8 0
-14.1 5.1 0
-14.1 5.4 0
-14.1 5.7 0
-14.1 6 0
-14.1 6.3 0
-14.1 6.6 0
-14.1 6.9 0
-14.1 7.2 0
-14.1 7.5 0
-14.1 7.8 0
-14.1 8.1 0
-14.1 8.4 0
-14.1 8.7 0
-14.1 9 0
-14.1 9.3 0
-14.1 9.6 0
-14.1 9.9 0
-14.1 10.2 0
-14.1 10.5 0
-14.1 10.8 0
-14.1 11.1 0
-14.1 11.4 0
-14.1 11.7 0
-14.1 12 0
-14.1 12.3 0
-14.1 12.6 0
-14.1 12.9 0
-14.1 13.2 0
-14.1 13.5 0
-14.1 13.8 0
-14.1 14.1 0
-14.1 14.4 0
-14.1 14.7 0
-14.1 15 0
-13.8 -15 0
-13.8 -14.7 0
-13.8 -14.4 0
-13.8 -14.1 0
-13.8 -13.8 0
-13.8 -13.5 0
-13.8 -13.2 0
-13.8 -12.9 0
-13.8 -12.6 0
-13.8 -12.3 0
-13.8 -12 0
-13.8 -11.7 0
-13.8 -11.4 0
-13.8 -11.1 0
-13.8 -10.8 0
-13.8 -10.5 0
-13.8 -10.2 0
-13.8 -9.9 0
-13.8 -9.6 0
-13.8 -9.3 0
-13.8 -9 0
-13.8 -8.7 0
-13.8 -8.4 0
-13.8 -8.1 0
-13.8 -7.8 0
-13.8 -7.5 0
-13.8 -7.2 0
-13.8 -6.9 0
-13.8 -6.6 0
-13.8 -6.3 0
-13.8 -6 0
-13.8 -5.7 0
-13.8 -5.4 0
-13.8 -5.1 0
-13.8 -4.8 0
-13.8 -4.5 0
-13.8 -4.2 0
-13.8 -3.9 0
-13.8 -3.6 0
-13.8 -3.3 0
-13.8 -3 0
-13.8 -2.7 0
-13.8 -2.4 0
-13.8 -2.1 0
-13.8 -1.8 0
-13.8 -1.5 0
-13.8 -1.2 0
-13.8 -0.9 0
-13.8 -0.6 0
-13.8 -0.3 0
-13.8 0 0
-13.8 0.3 0
-13.8 0.6 0
-13.8 0.9 0
-13.8 1.2 0
-13.8 1.5 0
-13.8 1.8 0
-13.8 2.1 0
-13.8 2.4 0
-13.8 2.7 0
-13.8 3 0
-13.8 3.3 0
-13.8 3.6 0
-13.8 3.9 0
-13.8 4.2 0
-13.8 4.5 0
-13.8 4.8 0
-13.8 5.1 0
-13.8 5.4 0
-13.8 5.7 0
-13.8 6 0
-13.8 6.3 0
-13.8 6.6 0
-13.8 6.9 0
-13.8 7.2 0
-13.8 7.5 0
-13.8 7.8 0
-13.8 8.1 0
-13.8 8.4 0
-13.8 8.7 0
-13.8 9 0
-13.8 9.3 0
-13.8 9.6 0
-13.8 9.9 0
-13.8 10.2 0
-13.8 10.5 0
-13.8 10.8 0
-13.8 11.1 0
-13.8 11.4 0
-13.8 11.7 0
-13.8 12 0
-13.8 12.3 0
-13.8 12.6 0
-13.8 12.9 0
-13.8 13.2 0
-13.8 13.5 0
-13.8 13.8 0
-13.8 14.1 0
-13.8 14.4 0
-13.8 14.7 0
-13.8 15 0
-13.5 -15 0
-13.5 -14.7 0
-13.5 -14.4 0
-13.5 -14.1 0
-13.5 -13.8 0
-13.5 -13.5 0
-13.5 -13.2 0
-13.5 -12.9 0
-13.5 -12.6 0
-13.5 -12.3 0
-13.5 -12 0
-13.5 -11.7 0
-13.5 -11.4 0
-13.5 -11.1 0
-13.5 -10.8 0
-13.5 -10.5 0
-13.5 -10.2 0
-13.5 -9.9 0
-13.5 -9.6 0
-13.5 -9.3 0
-13.5 -9 0
-13.5 -8.7 0
-13.5 -8.4 0
-13.5 -8.1 0
-13.5 -7.8 0
-13.5 -7.5 0
-13.5 -7.2 0
-13.5 -6.9 0
-13.5 -6.6 0
-13.5 -6.3 0
-13.5 -6 0
-13.5 -5.7 0
-13.5 -5.4 0
-13.5 -5.1 0
-13.5 -4.8 0
-13.5 -4.5 0
-13.5 -4.2 0
-13.5 -3.9 0
-13.5 -3.6 0
-13.5 -3.3 0
-13.5 -3 0
-13.5 -2.7 0
-13.5 -2.4 0
-13.5 -2.1 0
-13.5 -1.8 0
-13.5 -1.5 0
-13.5 -1.2 0
-13.5 -0.9 0
-13.5 -0.6 0
-13.5 -0.3 0
-13.5 0 0
-13.5 0.3 0
-13.5 0.6 0
-13.5 0.9 0
-13.5 1.2 0
-13.5 1.5 0
-13.5 1.8 0
-13.5 2.1 0
-13.5 2.4 0
-13.5 2.7 0
-13.5 3 0
-13.5 3.3 0
-13.5 3.6 0
-13.5 3.9 0
-13.5 4.2 0
-13.5 4.5 0
-13.5 4.8 0
-13.5 5.1 0
-13.5 5.4 0
-13.5 5.7 0
-13.5 6 0
-13.5 6.3 0
-13.5 6.6 0
-13.5 6.9 0
-13.5 7.2 0
-13.5 7.5 0
-13.5 7.8 0
-13.5 8.1 0
-13.5 8.4 0
-13.5 8.7 0
-13.5 9 0
-13.5 9.3 0
-13.5 9.6 0
-13.5 9.9 0
-13.5 10.2 0
-13.5 10.5 0
-13.5 10.8 0
-13.5 11.1 0
-13.5 11.4 0
-13.5 11.7 0
-13.5 12 0
-13.5 12.3 0
-13.5 12.6 0
-13.5 12.9 0
-13.5 13.2 0
-13.5 13.5 0
-13.5 13.8 0
-13.5 14.1 0
-13.5 14.4 0
-13.5 14.7 0
-13.5 15 0
-13.2 -15 0
-13.2 -14.7 0
-13.2 -14.4 0
-13.2 -14.1 0
-13.2 -13.8 0
-13.2 -13.5 0
-13.2 -13.2 0
-13.2 -12.9 0
-13.2 -12.6 0
-13.2 -12.3 0
-13.2 -12 0
-13.2 -11.7 0
-13.2 -11.4 0
-13.2 -11.1 0
-13.2 -10.8 0
-13.2 -10.5 0
-13.2 -10.2 0
-13.2 -9.9 0
-13.2 -9.6 0
-13.2 -9.3 0
-13.2 -9 0
-13.2 -8.7 0
-13.2 -8.4 0
-13.2 -8.1 0
-13.2 -7.8 0
-13.2 -7.5 0
-13.2 -7.2 0
-13.2 -6.9 0
-13.2 -6.6 0
-13.2 -6.3 0
-13.2 -6 0
-13.2 -5.7 0
-13.2 -5.4 0
-13.2 -5.1 0
-13.2 -4.8 0
-13.2 -4.5 0
-13.2 -4.2 0
-13.2 -3.9 0
-13.2 -3.6 0
-13.2 -3.3 0
-13.2 -3 0
-13.2 -2.7 0
-13.2 -2.4 0
-13.2 -2.1 0
-13.2 -1.8 0
-13.2 -1.5 0
-13.2 -1.2 0
-13.2 -0.9 0
-13.2 -0.6 0
-13.2 -0.3 0
-13.2 0 0
-13.2 0.3 0
-13.2 0.6 0
-13.2 0.9 0
-13.2 1.2 0
-13.2 1.5 0
-13.2 1.8 0
-13.2 2.1 0
-13.2 2.4 0
-13.2 2.7 0
-13.2 3 0
-13.2 3.3 0
-13.2 3.6 0
-13.2 3.9 0
-13.2 4.2 0
-13.2 4.5 0
-13.2 4.8 0
-13.2 5.1 0
-13.2 5.4 0
-13.2 5.7 0
-13.2 6 0
-13.2 6.3 0
-13.2 6.6 0
-13.2 6.9 0
-13.2 7.2 0
-13.2 7.5 0
-13.2 7.8 0
-13.2 8.1 0
-13.2 8.4 0
-13.2 8.7 0
-13.2 9 0
-13.2 9.3 0
-13.2 9.6 0
-13.2 9.9 0
-13.2 10.2 0
-13.2 10.5 0
-13.2 10.8 0
-13.2 11.1 0
-13.2 11.4 0
-13.2 11.7 0
-13.2 12 0
-13.2 12.3 0
-13.2 12.6 0
-13.2 12.9 0
-13.2 13.2 0
-13.2 13.5 0
-13.2 13.8 0
-13.2 14.1 0
-13.2 14.4 0
-13.2 14.7 0
-13.2 15 0
-12.9 -15 0
-12.9 -14.7 0
-12.9 -14.4 0
-12.9 -14.1 0
-12.9 -13.8 0
-12.9 -13.5 0
-12.9 -13.2 0
-12.9 -12.9 0
-12.9 -12.6 0
-12.9 -12.3 0
-12.9 -12 0
-12.9 -11.7 0
-12.9 -11.4 0
-12.9 -11.1 0
-12.9 -10.8 0
-12.9 -10.5 0
-12.9 -10.2 0
-12.9 -9.9 0
-12.9 -9.6 0
-12.9 -9.3 0
-12.9 -9 0
-12.9 -8.7 0
-12.9 -8.4 0
-12.9 -8.1 0
-12.9 -7.8 0
-12.9 -7.5 0
-12.9 -7.2 0
-12.9 -6.9 0
-12.9 -6.6 0
-12.9 -6.3 0
-12.9 -6 0
-12.9 -5.7 0
-12.9 -5.4 0
-12.9 -5.1 0
-12.9 -4.8 0
-12.9 -4.5 0
-12.9 -4.2 0
-12.9 -3.9 0
-12.9 -3.6 0
-12.9 -3.3 0
-12.9 -3 0
-12.9 -2.7 0
-12.9 -2.4 0
-12.9 -2.1 0
-12.9 -1.8 0
-12.9 -1.5 0
-12.9 -1.2 0
-12.9 -0.9 0
-12.9 -0.6 0
-12.9 -0.3 0
-12.9 0 0
-12.9 0.3 0
-12.9 0.6 0
-12.9 0.9 0
-12.9 1.2 0
-12.9 1.5 0
-12.9 1.8 0
-12.9 2.1 0
-12.9 2.4 0
-12.9 2.7 0
-12.9 3 0
-12.9 3.3 0
-12.9 3.6 0
-12.9 3.9 0
-12.9 4.2 0
-12.9 4.5 0
-12.9 4.8 0
-12.9 5.1 0
-12.9 5.4 0
-12.9 5.7 0
-12.9 6 0
-12.9 6.3 0
-12.9 6.6 0
-12.9 6.9 0
-12.9 7.2 0
-12.9 7.5 0
-12.9 7.8 0
-12.9 8.1 0
-12.9 8.4 0
-12.9 8.7 0
-12.9 9 0
[...]
            <PointData>
                <DataArray type="Float64" Name="c1" format="ascii">
0.0004276 0.000428171 0.000429883 0.000432733 0.000436717 0.000441828 0.00044806 0.000455401 0.00046384 0.000473362 0.000483952 0.00049559 0.000508255 0.000521922 0.000536564 0.000552152 0.000568651 0.000586025 0.000604232 0.00062323 0.000642968 0.000663395 0.000684453 0.000706083 0.000728218 0.000750787 0.000773718 0.000796931 0.000820344 0.000843868 0.000867413 0.000890885 0.000914185 0.000937214 0.000959867 0.00098204 0.00100363 0.00102452 0.00104462 0.00106381 0.001082 0.00109908 0.00111496 0.00112955 0.00114275 0.0011545 0.00116471 0.00117334 0.00118031 0.00118559 0.00118914 0.00119094 0.00119097 0.00118923 0.00118573 0.0011805 0.00117355 0.00116494 0.00115472 0.00114295 0.00112969 0.00111503 0.00109906 0.00108187 0.00106355 0.00104421 0.00102395 0.0010029 0.000981148 0.000958819 0.000936024 0.000912875 0.000889482 0.000865955 0.000842399 0.000818917 0.000795611 0.000772574 0.000749899 0.000727672 0.000705977 0.000684891 0.000664486 0.000644831 0.00062599 0.000608021 0.000590977 0.00057491 0.000559864 0.00054588 0.000532995 0.000521242 0.000510651 0.000501248 0.000493054 0.000486089 0.00048037 0.000475908 0.000472714 0.000470794 0.000470154 
0.000428135 0.000428708 0.000430424 0.000433281 0.000437275 0.0004424 0.000448648 0.000456009 0.00046447 0.000474019 0.000484637 0.000496307 0.000509007 0.000522713 0.000537398 0.000553031 0.00056958 0.000587006 0.00060527 0.000624328 0.000644129 0.000664623 0.000685752 0.000707456 0.000729668 0.000752318 0.000775333 0.000798632 0.000822133 0.000845749 0.000869388 0.000892955 0.000916351 0.000939477 0.000962228 0.000984498 0.00100618 0.00102717 0.00104736 0.00106665 0.00108492 0.00110209 0.00111805 0.00113271 0.00114598 0.00115779 0.00116806 0.00117673 0.00118374 0.00118905 0.00119263 0.00119444 0.00119447 0.00119273 0.00118922 0.00118396 0.00117699 0.00116834 0.00115807 0.00114624 0.00113292 0.0011182 0.00110215 0.00108487 0.00106647 0.00104704 0.0010267 0.00100555 0.000983702 0.000961277 0.000938384 0.000915137 0.000891646 0.000868022 0.000844371 0.000820797 0.000797399 0.000774274 0.000751514 0.000729205 0.00070743 0.000686268 0.000665791 0.000646068 0.000627163 0.000609133 0.000592033 0.000575913 0.000560818 0.00054679 0.000533864 0.000522075 0.000511451 0.000502019 0.0004938 0.000486815 0.000481078 0.000476603 0.000473399 0.000471474 0.000470832 
0.000429739 0.000430316 0.000432046 0.000434925 0.00043895 0.000444115 0.000450412 0.000457831 0.000466361 0.000475986 0.000486692 0.000498458 0.000511265 0.000525088 0.000539899 0.00055567 0.000572366 0.000589952 0.000608385 0.000627622 0.000647614 0.00066831 0.000689651 0.000711576 0.00073402 0.000756913 0.000780178 0.000803738 0.000827507 0.000851397 0.000875317 0.00089917 0.000922857 0.000946275 0.00096932 0.000991884 0.00101386 0.00103514 0.00105561 0.00107517 0.00109371 0.00111113 0.00112733 0.00114221 0.00115569 0.00116769 0.00117812 0.00118694 0.00119407 0.00119947 0.00120311 0.00120497 0.00120502 0.00120326 0.00119971 0.00119438 0.00118732 0.00117855 0.00116813 0.00115614 0.00114263 0.0011277 0.00111143 0.00109392 0.00107526 0.00105557 0.00103495 0.00101351 0.000991378 0.000968659 0.000945472 0.00092193 0.000898147 0.000874232 0.000850295 0.000826441 0.000802769 0.000779378 0.000756361 0.000733804 0.000711791 0.000690402 0.000669709 0.000649781 0.000630681 0.00061247 0.0005952 0.000578923 0.000563682 0.000549519 0.000536472 0.000524573 0.000513851 0.000504332 0.000496039 0.000488991 0.000483202 0.000478687 0.000475455 0.000473513 0.000472866 
0.000432409 0.000432993 0.000434744 0.000437661 0.000441738 0.00044697 0.000453349 0.000460865 0.000469508 0.000479262 0.000490112 0.00050204 0.000515025 0.000529043 0.000544066 0.000560066 0.00057701 0.00059486 0.000613576 0.000633113 0.000653425 0.000674457 0.000696152 0.000718449 0.000741282 0.000764579 0.000788265 0.000812259 0.000836476 0.000860827 0.000885218 0.000909551 0.000933724 0.000957634 0.000981171 0.00100423 0.00102669 0.00104845 0.0010694 0.00108942 0.00110841 0.00112625 0.00114285 0.00115811 0.00117194 0.00118425 0.00119496 0.00120402 0.00121135 0.00121691 0.00122067 0.00122259 0.00122266 0.00122089 0.00121727 0.00121183 0.0012046 0.00119564 0.00118498 0.00117271 0.00115889 0.00114361 0.00112696 0.00110904 0.00108996 0.00106982 0.00104874 0.00102683 0.00100421 0.000980999 0.000957317 0.000933281 0.000909005 0.000884605 0.000860188 0.000835864 0.000811734 0.000787898 0.00076445 0.000741478 0.000719067 0.000697297 0.000676242 0.000655971 0.000636548 0.000618033 0.00060048 0.000583938 0.000568453 0.000554067 0.000540816 0.000528733 0.000517848 0.000508185 0.000499767 0.000492613 0.000486739 0.000482158 0.000478878 0.000476908 0.00047625 
0.000436138 0.000436732 0.000438515 0.000441483 0.000445633 0.000450958 0.000457452 0.000465106 0.000473906 0.000483841 0.000494895 0.000507049 0.000520283 0.000534574 0.000549896 0.000566218 0.000583508 0.00060173 0.000620843 0.000640804 0.000661563 0.000683068 0.000705262 0.000728082 0.000751462 0.000775329 0.000799607 0.000824214 0.000849064 0.000874064 0.000899119 0.000924129 0.000948989 0.000973592 0.000997827 0.00102158 0.00104474 0.00106718 0.0010888 0.00110947 0.00112909 0.00114753 0.0011647 0.0011805 0.00119482 0.00120757 0.00121869 0.00122808 0.0012357 0.00124149 0.00124541 0.00124743 0.00124754 0.00124573 0.00124201 0.00123641 0.00122896 0.00121971 0.00120872 0.00119605 0.00118178 0.00116601 0.00114883 0.00113034 0.00111065 0.00108988 0.00106814 0.00104555 0.00102225 0.000998346 0.000973966 0.000949231 0.000924261 0.000899172 0.00087408 0.000849092 0.000824316 0.000799852 0.000775796 0.00075224 0.000729268 0.000706963 0.000685398 0.000664644 0.000644766 0.000625824 0.000607871 0.000590958 0.000575131 0.000560431 0.000546894 0.000534553 0.000523437 0.000513572 0.00050498 0.000497678 0.000491684 0.000487009 0.000483662 0.000481652 0.000480981 
0.000440918 0.000441526 0.000443348 0.000446383 0.000450626 0.000456073 0.000462715 0.000470544 0.000479549 0.000489717 0.000501033 0.000513478 0.000527035 0.000541678 0.000557383 0.000574121 0.000591859 0.000610561 0.000630187 0.000650694 0.000672033 0.00069415 0.000716989 0.000740486 0.000764574 0.00078918 0.000814226 0.000839628 0.000865297 0.000891141 0.000917059 0.00094295 0.000968703 0.000994209 0.00101935 0.00104401 0.00106807 0.00109141 0.0011139 0.00113542 0.00115586 0.0011751 0.00119301 0.00120951 0.00122447 0.00123781 0.00124944 0.00125929 0.00126728 0.00127336 0.00127749 0.00127964 0.0012798 0.00127795 0.00127411 0.0012683 0.00126055 0.00125093 0.00123949 0.0012263 0.00121145 0.00119504 0.00117716 0.00115792 0.00113744 0.00111584 0.00109325 0.00106978 0.00104558 0.00102078 0.000995484 0.000969839 0.000943965 0.000917982 0.00089201 0.000866161 0.000840545 0.000815266 0.000790422 0.000766108 0.000742409 0.00071941 0.000697185 0.000675806 0.000655339 0.000635844 0.000617375 0.000599983 0.000583714 0.000568607 0.000554701 0.000542027 0.000530614 0.000520488 0.00051167 0.000504178 0.000498028 0.000493232 0.0004898 0.000487738 0.00048705 
0.000446739 0.000447363 0.000449234 0.000452351 0.000456709 0.000462303 0.000469127 0.000477171 0.000486426 0.000496879 0.000508516 0.00052132 0.000535271 0.000550347 0.000566523 0.000583771 0.000602059 0.000621351 0.000641608 0.000662787 0.000684838 0.00070771 0.000731343 0.000755674 0.000780636 0.000806154 0.000832147 0.000858532 0.000885216 0.000912102 0.00093909 0.00096607 0.000992932 0.00101956 0.00104583 0.00107162 0.0010968 0.00112124 0.00114482 0.00116741 0.00118887 0.00120909 0.00122794 0.0012453 0.00126107 0.00127514 0.00128742 0.00129783 0.00130629 0.00131274 0.00131714 0.00131946 0.00131967 0.00131776 0.00131377 0.00130769 0.00129959 0.0012895 0.0012775 0.00126367 0.00124809 0.00123086 0.00121211 0.00119194 0.00117047 0.00114784 0.00112418 0.00109963 0.00107432 0.00104838 0.00102196 0.000995182 0.000968185 0.000941094 0.000914031 0.000887115 0.00086046 0.000834173 0.000808355 0.000783104 0.000758508 0.000734652 0.000711614 0.000689465 0.000668272 0.000648096 0.000628992 0.00061101 0.000594197 0.000578591 0.000564231 0.000551148 0.000539371 0.000528924 0.000519828 0.000512103 0.000505762 0.000500819 0.000497281 0.000495155 0.000494447 
0.000453587 0.00045423 0.00045616 0.000459373 0.000463866 0.000469636 0.000476674 0.000484974 0.000494526 0.000505317 0.000517335 0.000530563 0.000544982 0.000560572 0.000577307 0.000595161 0.000614103 0.000634097 0.000655106 0.000677084 0.000699984 0.000723754 0.000748335 0.000773663 0.000799668 0.000826275 0.000853403 0.000880964 0.000908863 0.000937001 0.000965271 0.000993561 0.00102175 0.00104973 0.00107735 0.0011045 0.00113104 0.00115682 0.00118172 0.00120559 0.00122829 0.0012497 0.00126968 0.0012881 0.00130485 0.00131981 0.00133288 0.00134396 0.00135299 0.0013599 0.00136462 0.00136713 0.00136741 0.00136545 0.00136126 0.00135487 0.00134632 0.00133567 0.00132299 0.00130837 0.0012919 0.0012737 0.00125389 0.00123259 0.00120993 0.00118605 0.0011611 0.00113523 0.00110857 0.00108128 0.00105349 0.00102535 0.000997005 0.00096858 0.000940207 0.00091201 0.000884108 0.000856612 0.000829628 0.000803256 0.000777587 0.000752707 0.000728697 0.000705629 0.00068357 0.000662583 0.000642722 0.000624038 0.000606576 0.000590377 0.000575477 0.000561907 0.000549696 0.000538869 0.000529444 0.000521441 0.000514874 0.000509755 0.000506092 0.000503891 0.000503157 
0.000461447 0.000462113 0.000464109 0.000467434 0.000472084 0.000478056 0.000485343 0.000493939 0.000503834 0.000515017 0.000527475 0.000541195 0.000556157 0.000572342 0.000589727 0.000608285 0.000627986 0.000648796 0.000670677 0.000693586 0.000717476 0.000742293 0.000767979 0.000794469 0.000821693 0.000849575 0.00087803 0.000906968 0.000936292 0.000965897 0.000995675 0.00102551 0.00105527 0.00108483 0.00111405 0.00114281 0.00117094 0.00119831 0.00122476 0.00125015 0.00127433 0.00129716 0.00131847 0.00133815 0.00135606 0.00137208 0.00138609 0.00139799 0.0014077 0.00141514 0.00142025 0.001423 0.00142336 0.00142133 0.00141691 0.00141014 0.00140106 0.00138974 0.00137625 0.00136069 0.00134318 0.00132382 0.00130274 0.0012801 0.00125602 0.00123067 0.00120419 0.00117675 0.0011485 0.0011196 0.0010902 0.00106046 0.00103052 0.00100053 0.000970611 0.00094091 0.000911543 0.00088263 0.000854279 0.000826594 0.000799669 0.000773593 0.000748447 0.000724306 0.000701238 0.000679305 0.000658563 0.000639061 0.000620845 0.000603956 0.000588428 0.000574294 0.00056158 0.00055031 0.000540504 0.000532179 0.000525349 0.000520026 0.000516217 0.00051393 0.000513167 
0.0004703 0.000470991 0.000473063 0.000476515 0.000481344 0.000487546 0.000495116 0.000504047 0.000514332 0.000525961 0.000538921 0.0005532 0.000568781 0.000585645 0.00060377 0.000623131 0.000643699 0.000665441 0.00068832 0.000712294 0.000737316 0.000763333 0.000790287 0.000818112 0.000846737 0.000876084 0.000906067 0.000936593 0.000967561 0.000998863 0.00103038 0.001062 0.00109357 0.00112498 0.00115606 0.00118668 0.00121668 0.00124589 0.00127417 0.00130133 0.00132724 0.00135171 0.0013746 0.00139576 0.00141503 0.00143229 0.0014474 0.00146026 0.00147077 0.00147884 0.00148442 0.00148745 0.00148791 0.00148579 0.00148111 0.00147389 0.00146419 0.00145207 0.00143764 0.00142098 0.00140223 0.0013815 0.00135895 0.00133473 0.001309 0.00128192 0.00125366 0.00122439 0.00119428 0.00116351 0.00113224 0.00110063 0.00106884 0.00103703 0.00100533 0.000973886 0.000942828 0.000912278 0.000882351 0.000853153 0.000824783 0.000797331 0.000770881 0.000745508 0.000721282 0.000698265 0.000676512 0.000656075 0.000636997 0.000619319 0.000603074 0.000588294 0.000575006 0.000563231 0.00055299 0.000544298 0.000537169 0.000531613 0.000527639 0.000525253 0.000524457 
0.000480125 0.000480844 0.000483001 0.000486596 0.000491624 0.000498084 0.000505971 0.000515279 0.000526002 0.00053813 0.000551654 0.000566562 0.000582837 0.000600464 0.000619422 0.000639687 0.000661231 0.000684024 0.00070803 0.000733207 0.000759509 0.000786884 0.000815273 0.000844612 0.000874827 0.000905839 0.000937561 0.000969895 0.00100274 0.00103597 0.00106949 0.00110314 0.0011368 0.00117032 0.00120354 0.0012363 0.00126845 0.00129979 0.00133016 0.00135939 0.00138729 0.00141368 0.00143839 0.00146126 0.00148212 0.00150082 0.00151722 0.0015312 0.00154264 0.00155146 0.00155757 0.00156093 0.0015615 0.00155929 0.00155429 0.00154655 0.00153613 0.0015231 0.00150756 0.00148962 0.00146943 0.00144712 0.00142285 0.00139681 0.00136915 0.00134007 0.00130974 0.00127836 0.00124612 0.00121319 0.00117977 0.00114601 0.0011121 0.0010782 0.00104446 0.00101102 0.00097803 0.000945613 0.000913889 0.00088297 0.000852956 0.000823941 0.000796011 0.000769242 0.000743704 0.000719461 0.000696567 0.000675072 0.000655021 0.000636452 0.0006194 0.000603893 0.000589957 0.000577614 0.000566883 0.000557778 0.000550312 0.000544496 0.000540336 0.000537838 0.000537005 
0.000490898 0.000491648 0.0004939 0.000497652 0.000502902 0.000509647 0.000517885 0.000527611 0.00053882 0.000551503 0.000565653 0.000581258 0.000598306 0.000616782 0.000636667 0.000657938 0.000680572 0.000704537 0.0007298 0.000756321 0.000784056 0.000812952 0.000842951 0.000873988 0.000905991 0.000938877 0.000972556 0.00100693 0.00104189 0.00107732 0.00111309 0.00114906 0.00118508 0.001221 0.00125666 0.00129187 0.00132647 0.00136025 0.00139303 0.00142461 0.0014548 0.0014834 0.00151022 0.00153506 0.00155775 0.00157812 0.00159602 0.00161129 0.00162381 0.00163348 0.00164022 0.00164396 0.00164467 0.00164235 0.00163699 0.00162865 0.00161739 0.00160329 0.00158647 0.00156706 0.0015452 0.00152107 0.00149483 0.00146668 0.00143681 0.00140542 0.00137273 0.00133893 0.00130424 0.00126885 0.00123296 0.00119676 0.00116043 0.00112416 0.0010881 0.0010524 0.00101722 0.000982696 0.000948944 0.000916083 0.000884218 0.000853446 0.000823852 0.000795517 0.000768508 0.000742891 0.000718719 0.000696043 0.000674904 0.000655342 0.000637387 0.00062107 0.000606413 0.000593438 0.000582161 0.000572596 0.000564756 0.000558649 0.000554282 0.00055166 0.000550786 
0.000502591 0.000503377 0.000505732 0.000509656 0.000515149 0.000522209 0.000530833 0.000541018 0.00055276 0.000566053 0.000580891 0.000597266 0.000615165 0.000634576 0.000655483 0.000677867 0.000701703 0.000726966 0.000753621 0.000781633 0.000810956 0.000841542 0.000873331 0.000906261 0.000940256 0.000975234 0.0010111 0.00104776 0.0010851 0.00112298 0.00116129 0.00119987 0.00123856 0.00127721 0.00131562 0.00135361 0.00139098 0.00142754 0.00146306 0.00149734 0.00153014 0.00156127 0.00159049 0.00161761 0.00164241 0.0016647 0.00168431 0.00170107 0.00171484 0.00172551 0.00173297 0.00173715 0.00173803 0.00173557 0.0017298 0.00172077 0.00170854 0.00169322 0.00167493 0.00165382 0.00163005 0.00160381 0.00157531 0.00154474 0.00151234 0.00147833 0.00144293 0.00140638 0.00136889 0.0013307 0.00129202 0.00125305 0.00121399 0.00117504 0.00113636 0.00109813 0.00106049 0.00102359 0.000987567 0.000952533 0.000918599 0.000885865 0.000854418 0.000824337 0.000795694 0.00076855 0.000742961 0.000718973 0.00069663 0.000675968 0.000657016 0.000639803 0.00062435 0.000610676 0.000598797 0.000588726 0.000580472 0.000574045 0.00056945 0.000566692 0.000565772 
0.000515176 0.000515999 0.000518467 0.00052258 0.000528337 0.000535739 0.000544783 0.000555469 0.000567793 0.000581752 0.000597342 0.000614556 0.000633386 0.000653821 0.000675848 0.00069945 0.000724607 0.000751294 0.00077948 0.000809132 0.000840207 0.000872656 0.000906424 0.000941447 0.00097765 0.00101495 0.00105325 0.00109245 0.00113244 0.00117307 0.00121422 0.00125572 0.00129741 0.00133911 0.00138062 0.00142175 0.00146227 0.00150197 0.0015406 0.00157793 0.00161373 0.00164773 0.00167971 0.00170942 0.00173663 0.00176112 0.0017827 0.00180118 0.00181639 0.0018282 0.00183649 0.00184119 0.00184225 0.00183965 0.00183341 0.00182358 0.00181025 0.00179352 0.00177354 0.00175048 0.00172452 0.00169588 0.00166478 0.00163146 0.00159617 0.00155916 0.00152069 0.00148101 0.00144037 0.00139901 0.00135717 0.00131508 0.00127295 0.00123098 0.00118937 0.00114829 0.00110791 0.00106837 0.00102981 0.000992359 0.000956129 0.000921218 0.000887718 0.000855708 0.000825258 0.00079643 0.000769278 0.000743848 0.00072018 0.000698308 0.000678262 0.000660065 0.000643739 0.0006293 0.000616761 0.000606135 0.00059743 0.000590652 0.000585808 0.0005829 0.00058193 
0.000528618 0.000529481 0.000532071 0.000536388 0.000542432 0.000550204 0.000559703 0.000570931 0.000583886 0.000598567 0.000614973 0.000633099 0.000652939 0.000674488 0.000697733 0.000722663 0.000749259 0.0007775 0.00080736 0.000838806 0.0008718 0.000906295 0.000942236 0.000979562 0.0010182 0.00105806 0.00109905 0.00114107 0.00118399 0.00122768 0.00127199 0.00131675 0.00136179 0.00140691 0.00145191 0.00149656 0.00154063 0.00158387 0.00162602 0.00166682 0.001706 0.00174328 0.00177839 0.00181106 0.00184103 0.00186805 0.00189188 0.00191233 0.00192919 0.00194231 0.00195157 0.00195686 0.00195814 0.00195538 0.0019486 0.00193786 0.00192326 0.00190491 0.001883 0.0018577 0.00182924 0.00179785 0.00176379 0.00172734 0.00168876 0.00164836 0.0016064 0.00156318 0.00151897 0.00147404 0.00142865 0.00138305 0.00133748 0.00129214 0.00124726 0.00120301 0.00115956 0.00111709 0.00107573 0.0010356 0.000996833 0.000959522 0.000923761 0.000889628 0.000857194 0.000826519 0.000797654 0.000770645 0.000745528 0.000722336 0.000701095 0.000681826 0.000664548 0.000649275 0.000636019 0.000624789 0.000615593 0.000608435 0.000603319 0.000600249 0.000599225 
0.000542881 0.000543788 0.000546509 0.000551045 0.000557397 0.000565567 0.000575557 0.000587368 0.000601003 0.000616462 0.000633747 0.000652857 0.00067379 0.000696542 0.000721106 0.000747474 0.000775631 0.00080556 0.000837239 0.000870639 0.000905724 0.000942451 0.000980769 0.00102062 0.00106192 0.0011046 0.00114855 0.00119368 0.00123984 0.00128691 0.00133472 0.00138311 0.00143188 0.00148083 0.00152972 0.00157832 0.00162638 0.00167361 0.00171973 0.00176445 0.00180746 0.00184846 0.00188713 0.00192318 0.00195629 0.0019862 0.00201262 0.00203532 0.00205408 0.00206872 0.00207908 0.00208506 0.00208659 0.00208365 0.00207625 0.00206447 0.00204841 0.00202822 0.00200409 0.00197624 0.00194492 0.0019104 0.00187297 0.00183295 0.00179064 0.00174638 0.00170048 0.00165326 0.00160503 0.00155608 0.00150671 0.00145719 0.00140777 0.00135868 0.00131015 0.00126238 0.00121555 0.00116983 0.00112537 0.0010823 0.00104074 0.00100079 0.000962549 0.000926093 0.00089149 0.000858798 0.000828067 0.000799338 0.000772646 0.000748019 0.000725481 0.00070505 0.00068674 0.000670565 0.000656533 0.00064465 0.000634922 0.000627352 0.000621944 0.000618698 0.000617616 
0.000557926 0.00055888 0.000561741 0.000566511 0.000573193 0.000581789 0.000592303 0.000604739 0.000619102 0.000635396 0.000653625 0.000673792 0.000695898 0.000719945 0.00074593 0.000773847 0.000803689 0.000835443 0.00086909 0.000904606 0.00094196 0.000981114 0.00102202 0.00106462 0.00110884 0.0011546 0.0012018 0.00125033 0.00130007 0.00135087 0.00140256 0.00145497 0.00150788 0.00156108 0.00161433 0.00166735 0.00171987 0.00177158 0.00182218 0.00187132 0.00191867 0.00196389 0.00200661 0.00204649 0.0020832 0.0021164 0.00214579 0.00217108 0.00219202 0.00220839 0.00222003 0.0022268 0.00222863 0.00222548 0.00221738 0.00220441 0.00218668 0.00216438 0.00213772 0.00210694 0.00207235 0.00203426 0.001993 0.00194892 0.00190238 0.00185375 0.0018034 0.00175167 0.00169892 0.00164547 0.00159164 0.00153773 0.00148402 0.00143076 0.00137819 0.00132652 0.00127595 0.00122665 0.00117878 0.00113247 0.00108785 0.00104503 0.00100408 0.000965091 0.000928128 0.000893245 0.000860488 0.000829896 0.000801498 0.00077532 0.000751381 0.000729695 0.000710274 0.000693126 0.000678257 0.000665672 0.000655372 0.00064736 0.000641637 0.000638203 0.000637058 