<?xml version="1.0"?>
<VTKFile type="StructuredGrid" version="0.1">
    <StructuredGrid WholeExtent="0 100 0 100 0 0">
        <Piece Extent="0 100 0 100 0 0">
            <Points>
                <DataArray type="Float64" NumberOfComponents="3" format="ascii">
-15 -15 0
-15 -14.7 0
-15 -14.4 0
-15 -14.1 0
-15 -13.8 0
-15 -13.5 0
-15 -13.2 0
-15 -12.9 0
-15 -12.6 0
-15 -12.3 0
-15 -12 0
-15 -11.7 0
-15 -11.4 0
-15 -11.1 0
-15 -10.8 0
-15 -10.5 0
-15 -10.2 0
-15 -9.9 0
-15 -9.6 0
-15 -9.3 0
-15 -9 0
-15 -8.7 0
-15 -8.4 0
-15 -8.1 0
-15 -7.8 0
-15 -7.5 0
-15 -7.2 0
-15 -6.9 0
-15 -6.6 0
-15 -6.3 0
-15 -6 0
-15 -5.7 0
-15 -5.4 0
-15 -5.1 0
-15 -4.8 0
-15 -4.5 0
-15 -4.2 0
-15 -3.9 0
-15 -3.6 0
-15 -3.3 0
-15 -3 0
-15 -2.7 0
-15 -2.4 0
-15 -2.1 0
-15 -1.8 0
-15 -1.5 0
-15 -1.2 0
-15 -0.9 0
-15 -0.6 0
-15 -0.3 0
-15 0 0
-15 0.3 0
-15 0.6 0
-15 0.9 0
-15 1.2 0
-15 1.5 0
-15 1.8 0
-15 2.1 0
-15 2.4 0
-15 2.7 0
-15 3 0
-15 3.3 0
-15 3.6 0
-15 3.9 0
-15 4.2 0
-15 4.5 0
-15 4.8 0
-15 5.1 0
-15 5.4 0
-15 5.7 0
-15 6 0
-15 6.3 0
-15 6.6 0
-15 6.9 0
-15 7.2 0
-15 7.5 0
-15 7.8 0
-15 8.1 0
-15 8.4 0
-15 8.7 0
-15 9 0
-15 9.3 0
-15 9.6 0
-15 9.9 0
-15 10.2 0
-15 10.5 0
-15 10.8 0
-15 11.1 0
-15 11.4 0
-15 11.7 0
-15 12 0
-15 12.3 0
-15 12.6 0
-15 12.9 0
-15 13.2 0
-15 13.5 0
-15 13.8 0
-15 14.1 0
-15 14.4 0
-15 14.7 0
-15 15 0
-14.7 -15 0
-14.7 -14.7 0
-14.7 -14.4 0
-14.7 -14.1 0
-14.7 -13.8 0
-14.7 -13.5 0
-14.7 -13.2 0
-14.7 -12.9 0
-14.7 -12.6 0
-14.7 -12.3 0
-14.7 -12 0
-14.7 -11.7 0
-14.7 -11.4 0
-14.7 -11.1 0
-14.7 -10.8 0
-14.7 -10.5 0
-14.7 -10.2 0
-14.7 -9.9 0
-14.7 -9.6 0
-14.7 -9.3 0
-14.7 -9 0
-14.7 -8.7 0
-14.7 -8.4 0
-14.7 -8.1 0
-14.7 -7.8 0
-14.7 -7.5 0
-14.7 -7.2 0
-14.7 -6.9 0
-14.7 -6.6 0
-14.7 -6.3 0
-14.7 -6 0
-14.7 -5.7 0
-14.7 -5.4 0
-14.7 -5.1 0
-14.7 -4.8 0
-14.7 -4.5 0
-14.7 -4.2 0
-14.7 -3.9 0
-14.7 -3.6 0
-14.7 -3.3 0
-14.7 -3 0
-14.7 -2.7 0
-14.7 -2.4 0
-14.7 -2.1 0
-14.7 -1.8 0
-14.7 -1.5 0
-14.7 -1.2 0
-14.7 -0.9 0
-14.7 -0.6 0
-14.7 -0.3 0
-14.7 0 0
-14.7 0.3 0
-14.7 0.6 0
-14.7 0.9 0
-14.7 1.2 0
-14.7 1.5 0
-14.7 1.8 0
-14.7 2.1 0
-14.7 2.4 0
-14.7 2.7 0
-14.7 3 0
-14.7 3.3 0
-14.7 3.6 0
-14.7 3.9 0
-14.7 4.2 0
-14.7 4.5 0
-14.7 4.8 0
-14.7 5.1 0
-14.7 5.4 0
-14.7 5.7 0
-14.7 6 0
-14.7 6.3 0
-14.7 6.6 0
-14.7 6.9 0
-14.7 7.2 0
-14.7 7.5 0
-14.7 7.8 0
-14.7 8.1 0
-14.7 8.4 0
-14.7 8.7 0
-14.7 9 0
-14.7 9.3 0
-14.7 9.6 0
-14.7 9.9 0
-14.7 10.2 0
-14.7 10.5 0
-14.7 10.8 0
-14.7 11.1 0
-14.7 11.4 0
-14.7 11.7 0
-14.7 12 0
-14.7 12.3 0
-14.7 12.6 0
-14.7 12.9 0
-14.7 13.2 0
-14.7 13.5 0
-14.7 13.8 0
-14.7 14.1 0
-14.7 14.4 0
-14.7 14.7 0
-14.7 15 0
-14.4 -15 0
-14.4 -14.7 0
-14.4 -14.4 0
-14.4 -14.1 0
-14.4 -13.8 0
-14.4 -13.5 0
-14.4 -13.2 0
-14.4 -12.9 0
-14.4 -12.6 0
-14.4 -12.3 0
-14.4 -12 0
-14.4 -11.7 0
-14.4 -11.4 0
-14.4 -11.1 0
-14.4 -10.8 0
-14.4 -10.5 0
-14.4 -10.2 0
-14.4 -9.9 0
-14.4 -9.6 0
-14.4 -9.3 0
-14.4 -9 0
-14.4 -8.7 0
-14.4 -8.4 0
-14.4 -8.1 0
-14.4 -7.8 0
-14.4 -7.5 0
-14.4 -7.2 0
-14.4 -6.9 0
-14.4 -6.6 0
-14.4 -6.3 0
-14.4 -6 0
-14.4 -5.7 0
-14.4 -5.4 0
-14.4 -5.1 0
-14.4 -4.8 0
-14.4 -4.5 0
-14.4 -4.2 0
-14.4 -3.9 0
-14.4 -3.6 0
-14.4 -3.3 0
-14.4 -3 0
-14.4 -2.7 0
-14.4 -2.4 0
-14.4 -2.1 0
-14.4 -1.8 0
-14.4 -1.5 0
-14.4 -1.2 0
-14.4 -0.9 0
-14.4 -0.6 0
-14.4 -0.3 0
-14.4 0 0
-14.4 0.3 0
-14.4 0.6 0
-14.4 0.9 0
-14.4 1.2 0
-14.4 1.5 0
-14.4 1.8 0
-14.4 2.1 0
-14.4 2.4 0
-14.4 2.7 0
-14.4 3 0
-14.4 3.3 0
-14.4 3.6 0
-14.4 3.9 0
-14.4 4.2 0
-14.4 4.5 0
-14.4 4.8 0
-14.4 5.1 0
-14.4 5.4 0
-14.4 5.7 0
-14.4 6 0
-14.4 6.3 0
-14.4 6.6 0
-14.4 6.9 0
-14.4 7.2 0
-14.4 7.5 0
-14.4 7.8 0
-14.4 8.1 0
-14.4 8.4 0
-14.4 8.7 0
-14.4 9 0
-14.4 9.3 0
-14.4 9.6 0
-14.4 9.9 0
-14.4 10.2 0
-14.4 10.5 0
-14.4 10.8 0
-14.4 11.1 0
-14.4 11.4 0
-14.4 11.7 0
-14.4 12 0
-14.4 12.3 0
-14.4 12.6 0
-14.4 12.9 0
-14.4 13.2 0
-14.4 13.5 0
-14.4 13.8 0
-14.4 14.1 0
-14.4 14.4 0
-14.4 14.7 0
-14.4 15 0
-14.1 -15 0
-14.1 -14.7 0
-14.1 -14.4 0
-14.1 -14.1 0
-14.1 -13.8 0
-14.1 -13.5 0
-14.1 -13.2 0
-14.1 -12.9 0
-14.1 -12.6 0
-14.1 -12.3 0
-14.1 -12 0
-14.1 -11.7 0
-14.1 -11.4 0
-14.1 -11.1 0
-14.1 -10.8 0
-14.1 -10.5 0
-14.1 -10.2 0
-14.1 -9.9 0
-14.1 -9.6 0
-14.1 -9.3 0
-14.1 -9 0
-14.1 -8.7 0
-14.1 -8.4 0
-14.1 -8.1 0
-14.1 -7.8 0
-14.1 -7.5 0
-14.1 -7.2 0
-14.1 -6.9 0
-14.1 -6.6 0
-14.1 -6.3 0
-14.1 -6 0
-14.1 -5.7 0
-14.1 -5.4 0
-14.1 -5.1 0
-14.1 -4.8 0
-14.1 -4.5 0
-14.1 -4.2 0
-14.1 -3.9 0
-14.1 -3.6 0
-14.1 -3.3 0
-14.1 -3 0
-14.1 -2.7 0
-14.1 -2.4 0
-14.1 -2.1 0
-14.1 -1.8 0
-14.1 -1.5 0
-14.1 -1.2 0
-14.1 -0.9 0
-14.1 -0.6 0
-14.1 -0.3 0
-14.1 0 0
-14.1 0.3 0
-14.1 0.6 0
-14.1 0.9 0
-14.1 1.2 0
-14.1 1.5 0
-14.1 1.8 0
-14.1 2.1 0
-14.1 2.4 0
-14.1 2.7 0
-14.1 3 0
-14.1 3.3 0
-14.1 3.6 0
-14.1 3.9 0
-14.1 4.2 0
-14.1 4.5 0
-14.1 4.8 0
-14.1 5.1 0
-14.1 5.4 0
-14.1 5.7 0
-14.1 6 0
-14.1 6.3 0
-14.1 6.6 0
-14.1 6.9 0
-14.1 7.2 0
-14.1 7.5 0
-14.1 7.8 0
-14.1 8.1 0
-14.1 8.4 0
-14.1 8.7 0
-14.1 9 0
-14.1 9.3 0
-14.1 9.6 0
-14.1 9.9 0
-14.1 10.2 0
-14.1 10.5 0
-14.1 10.8 0
-14.1 11.1 0
-14.1 11.4 0
-14.1 11.7 0
-14.1 12 0
-14.1 12.3 0
-14.1 12.6 0
-14.1 12.9 0
-14.1 13.2 0
-14.1 13.5 0
-14.1 13.8 0
-14.1 14.1 0
-14.1 14.4 0
-14.1 14.7 0
-14.1 15 0
-13.8 -15 0
-13.8 -14.7 0
-13.8 -14.4 0
-13.8 -14.1 0
-13.8 -13.8 0
-13.8 -13.5 0
-13.8 -13.2 0
-13.8 -12.9 0
-13.8 -12.6 0
-13.8 -12.3 0
-13.8 -12 0
-13.8 -11.7 0
-13.8 -11.4 0
-13.8 -11.1 0
-13.8 -10.8 0
-13.8 -10.5 0
-13.8 -10.2 0
-13.8 -9.9 0
-13.8 -9.6 0
-13.8 -9.3 0
-13.8 -9 0
-13.8 -8.7 0
-13.8 -8.4 0
-13.8 -8.1 0
-13.8 -7.8 0
-13.8 -7.5 0
-13.8 -7.2 0
-13.8 -6.9 0
-13.8 -6.6 0
-13.8 -6.3 0
-13.8 -6 0
-13.8 -5.7 0
-13.8 -5.4 0
-13.8 -5.1 0
-13.8 -4.8 0
-13.8 -4.5 0
-13.8 -4.2 0
-13.8 -3.9 0
-13.8 -3.6 0
-13.8 -3.3 0
-13.8 -3 0
-13.8 -2.7 0
-13.8 -2.4 0
-13.8 -2.1 0
-13.8 -1.8 0
-13.8 -1.5 0
-13.8 -1.2 0
-13.8 -0.9 0
-13.8 -0.6 0
-13.8 -0.3 0
-13.8 0 0
-13.8 0.3 0
-13.8 0.6 0
-13.8 0.9 0
-13.8 1.2 0
-13.8 1.5 0
-13.8 1.8 0
-13.8 2.1 0
-13.8 2.4 0
-13.8 2.7 0
-13.8 3 0
-13.8 3.3 0
-13.8 3.6 0
-13.8 3.9 0
-13.8 4.2 0
-13.8 4.5 0
-13.8 4.8 0
-13.8 5.1 0
-13.8 5.4 0
-13.8 5.7 0
-13.8 6 0
-13.8 6.3 0
-13.8 6.6 0
-13.8 6.9 0
-13.8 7.2 0
-13.8 7.5 0
-13.8 7.8 0
-13.8 8.1 0
-13.8 8.4 0
-13.8 8.7 0
-13.8 9 0
-13.8 9.3 0
-13.8 9.6 0
-13.8 9.9 0
-13.8 10.2 0
-13.8 10.5 0
-13.8 10.8 0
-13.8 11.1 0
-13.8 11.4 0
-13.8 11.7 0
-13.8 12 0
-13.8 12.3 0
-13.8 12.6 0
-13.8 12.9 0
-13.8 13.2 0
-13.8 13.5 0
-13.8 13.8 0
-13.8 14.1 0
-13.8 14.4 0
-13.8 14.7 0
-13.8 15 0
-13.5 -15 0
-13.5 -14.7 0
-13.5 -14.4 0
-13.5 -14.1 0
-13.5 -13.8 0
-13.5 -13.5 0
-13.5 -13.2 0
-13.5 -12.9 0
-13.5 -12.6 0
-13.5 -12.3 0
-13.5 -12 0
-13.5 -11.7 0
-13.5 -11.4 0
-13.5 -11.1 0
-13.5 -10.8 0
-13.5 -10.5 0
-13.5 -10.2 0
-13.5 -9.9 0
-13.5 -9.6 0
-13.5 -9.3 0
-13.5 -9 0
-13.5 -8.7 0
-13.5 -8.4 0
-13.5 -8.1 0
-13.5 -7.8 0
-13.5 -7.5 0
-13.5 -7.2 0
-13.5 -6.9 0
-13.5 -6.6 0
-13.5 -6.3 0
-13.5 -6 0
-13.5 -5.7 0
-13.5 -5.4 0
-13.5 -5.1 0
-13.5 -4.8 0
-13.5 -4.5 0
-13.5 -4.2 0
-13.5 -3.9 0
-13.5 -3.6 0
-13.5 -3.3 0
-13.5 -3 0
-13.5 -2.7 0
-13.5 -2.4 0
-13.5 -2.1 0
-13.5 -1.8 0
-13.5 -1.5 0
-13.5 -1.2 0
-13.5 -0.9 0
-13.5 -0.6 0
-13.5 -0.3 0
-13.5 0 0
-13.5 0.3 0
-13.5 0.6 0
-13.5 0.9 0
-13.5 1.2 0
-13.5 1.5 0
-13.5 1.8 0
-13.5 2.1 0
-13.5 2.4 0
-13.5 2.7 0
-13.5 3 0
-13.5 3.3 0
-13.5 3.6 0
-13.5 3.9 0
-13.5 4.2 0
-13.5 4.5 0
-13.5 4.8 0
-13.5 5.1 0
-13.5 5.4 0
-13.5 5.7 0
-13.5 6 0
-13.5 6.3 0
-13.5 6.6 0
-13.5 6.9 0
-13.5 7.2 0
-13.5 7.5 0
-13.5 7.8 0
-13.5 8.1 0
-13.5 8.4 0
-13.5 8.7 0
-13.5 9 0
-13.5 9.3 0
-13.5 9.6 0
-13.5 9.9 0
-13.5 10.2 0
-13.5 10.5 0
-13.5 10.8 0
-13.5 11.1 0
-13.5 11.4 0
-13.5 11.7 0
-13.5 12 0
-13.5 12.3 0
-13.5 12.6 0
-13.5 12.9 0
-13.5 13.2 0
-13.5 13.5 0
-13.5 13.8 0
-13.5 14.1 0
-13.5 14.4 0
-13.5 14.7 0
-13.5 15 0
-13.2 -15 0
-13.2 -14.7 0
-13.2 -14.4 0
-13.2 -14.1 0
-13.2 -13.8 0
-13.2 -13.5 0
-13.2 -13.2 0
-13.2 -12.9 0
-13.2 -12.6 0
-13.2 -12.3 0
-13.2 -12 0
-13.2 -11.7 0
-13.2 -11.4 0
-13.2 -11.1 0
-13.2 -10.8 0
-13.2 -10.5 0
-13.2 -10.2 0
-13.2 -9.9 0
-13.2 -9.6 0
-13.2 -9.3 0
-13.2 -9 0
-13.2 -8.7 0
-13.2 -8.4 0
-13.2 -8.1 0
-13.2 -7.8 0
-13.2 -7.5 0
-13.2 -7.2 0
-13.2 -6.9 0
-13.2 -6.6 0
-13.2 -6.3 0
-13.2 -6 0
-13.2 -5.7 0
-13.2 -5.4 0
-13.2 -5.1 0
-13.2 -4.8 0
-13.2 -4.5 0
-13.2 -4.2 0
-13.2 -3.9 0
-13.2 -3.6 0
-13.2 -3.3 0
-13.2 -3 0
-13.2 -2.7 0
-13.2 -2.4 0
-13.2 -2.1 0
-13.2 -1.8 0
-13.2 -1.5 0
-13.2 -1.2 0
-13.2 -0.9 0
-13.2 -0.6 0
-13.2 -0.3 0
-13.2 0 0
-13.2 0.3 0
-13.2 0.6 0
-13.2 0.9 0
-13.2 1.2 0
-13.2 1.5 0
-13.2 1.8 0
-13.2 2.1 0
-13.2 2.4 0
-13.2 2.7 0
-13.2 3 0
-13.2 3.3 0
-13.2 3.6 0
-13.2 3.9 0
-13.2 4.2 0
-13.2 4.5 0
-13.2 4.8 0
-13.2 5.1 0
-13.2 5.4 0
-13.2 5.7 0
-13.2 6 0
-13.2 6.3 0
-13.2 6.6 0
-13.2 6.9 0
-13.2 7.2 0
-13.2 7.5 0
-13.2 7.8 0
-13.2 8.1 0
-13.2 8.4 0
-13.2 8.7 0
-13.2 9 0
-13.2 9.3 0
-13.2 9.6 0
-13.2 9.9 0
-13.2 10.2 0
-13.2 10.5 0
-13.2 10.8 0
-13.2 11.1 0
-13.2 11.4 0
-13.2 11.7 0
-13.2 12 0
-13.2 12.3 0
-13.2 12.6 0
-13.2 12.9 0
-13.2 13.2 0
-13.2 13.5 0
-13.2 13.8 0
-13.2 14.1 0
-13.2 14.4 0
-13.2 14.7 0
-13.2 15 0
-12.9 -15 0
-12.9 -14.7 0
-12.9 -14.4 0
-12.9 -14.1 0
-12.9 -13.8 0
-12.9 -13.5 0
-12.9 -13.2 0
-12.9 -12.9 0
-12.9 -12.6 0
-12.9 -12.3 0
-12.9 -12 0
-12.9 -11.7 0
-12.9 -11.4 0
-12.9 -11.1 0
-12.9 -10.8 0
-12.9 -10.5 0
-12.9 -10.2 0
-12.9 -9.9 0
-12.9 -9.6 0
-12.9 -9.3 0
-12.9 -9 0
-12.9 -8.7 0
-12.9 -8.4 0
-12.9 -8.1 0
-12.9 -7.8 0
-12.9 -7.5 0
-12.9 -7.2 0
-12.9 -6.9 0
-12.9 -6.6 0
-12.9 -6.3 0
-12.9 -6 0
-12.9 -5.7 0
-12.9 -5.4 0
-12.9 -5.1 0
-12.9 -4.8 0
-12.9 -4.5 0
-12.9 -4.2 0
-12.9 -3.9 0
-12.9 -3.6 0
-12.9 -3.3 0
-12.9 -3 0
-12.9 -2.7 0
-12.9 -2.4 0
-12.9 -2.1 0
-12.9 -1.8 0
-12.9 -1.5 0
-12.9 -1.2 0
-12.9 -0.9 0
-12.9 -0.6 0
-12.9 -0.3 0
-12.9 0 0
-12.9 0.3 0
-12.9 0.6 0
-12.9 0.9 0
-12.9 1.2 0
-12.9 1.5 0
-12.9 1.8 0
-12.9 2.1 0
-12.9 2.4 0
-12.9 2.7 0
-12.9 3 0
-12.9 3.3 0
-12.9 3.6 0
-12.9 3.9 0
-12.9 4.2 0
-12.9 4.5 0
-12.9 4.8 0
-12.9 5.1 0
-12.9 5.4 0
-12.9 5.7 0
-12.9 6 0
-12.9 6.3 0
-12.9 6.6 0
-12.9 6.9 0
-12.9 7.2 0
-12.9 7.5 0
-12.9 7.8 0
-12.9 8.1 0
-12.9 8.4 0
-12.9 8.7 0
-12.9 9 0
[...]
            <PointData>
                <DataArray type="Float64" Name="c1" format="ascii">
0.000759549 0.000760487 0.000763298 0.000767981 0.000774532 0.000782946 0.000793216 0.000805334 0.000819288 0.000835065 0.000852648 0.000872018 0.000893152 0.000916024 0.0009406 0.000966846 0.000994719 0.00102417 0.00105515 0.00108759 0.00112143 0.00115659 0.00119298 0.00123051 0.00126909 0.00130859 0.0013489 0.00138989 0.00143141 0.00147333 0.00151547 0.00155769 0.0015998 0.00164162 0.00168296 0.00172364 0.00176346 0.00180221 0.00183971 0.00187575 0.00191013 0.00194267 0.00197318 0.00200148 0.0020274 0.00205078 0.00207149 0.00208938 0.00210436 0.00211633 0.00212521 0.00213095 0.00213351 0.00213289 0.00212908 0.00212213 0.00211208 0.00209901 0.00208301 0.00206418 0.00204265 0.00201858 0.0019921 0.00196341 0.00193267 0.00190007 0.00186582 0.0018301 0.00179314 0.00175513 0.00171628 0.00167679 0.00163686 0.0015967 0.00155649 0.00151642 0.00147666 0.00143739 0.00139876 0.00136093 0.00132403 0.00128821 0.00125358 0.00122026 0.00118836 0.00115796 0.00112917 0.00110206 0.0010767 0.00105315 0.00103148 0.00101173 0.000993943 0.000978168 0.000964432 0.000952764 0.000943187 0.000935719 0.000930375 0.000927165 0.000926094 
0.00076034 0.00076128 0.000764099 0.000768795 0.000775365 0.000783803 0.000794102 0.000806255 0.00082025 0.000836073 0.000853708 0.000873136 0.000894335 0.000917277 0.000941931 0.00096826 0.000996223 0.00102577 0.00105685 0.00108941 0.00112336 0.00115864 0.00119517 0.00123284 0.00127156 0.00131121 0.00135168 0.00139283 0.00143452 0.00147661 0.00151893 0.00156133 0.00160362 0.00164562 0.00168715 0.00172802 0.00176802 0.00180696 0.00184463 0.00188084 0.0019154 0.0019481 0.00197876 0.0020072 0.00203325 0.00205675 0.00207756 0.00209555 0.00211061 0.00212263 0.00213156 0.00213733 0.0021399 0.00213927 0.00213545 0.00212846 0.00211836 0.00210521 0.00208912 0.00207019 0.00204855 0.00202435 0.00199774 0.0019689 0.001938 0.00190524 0.00187082 0.00183493 0.00179778 0.00175959 0.00172056 0.00168088 0.00164078 0.00160043 0.00156005 0.0015198 0.00147987 0.00144043 0.00140164 0.00136365 0.00132661 0.00129064 0.00125588 0.00122243 0.00119041 0.0011599 0.001131 0.00110379 0.00107834 0.00105471 0.00103296 0.00101314 0.000995299 0.00097947 0.000965689 0.000953982 0.000944373 0.000936881 0.000931519 0.000928299 0.000927224 
0.000762711 0.000763659 0.000766502 0.000771237 0.000777862 0.000786372 0.00079676 0.000809017 0.000823133 0.000839095 0.000856887 0.00087649 0.000897882 0.000921036 0.000945921 0.000972501 0.00100073 0.00103058 0.00106197 0.00109485 0.00112916 0.00116482 0.00120174 0.00123982 0.00127898 0.00131908 0.00136002 0.00140166 0.00144386 0.00148646 0.00152932 0.00157225 0.00161509 0.00165765 0.00169974 0.00174116 0.00178172 0.0018212 0.00185941 0.00189615 0.00193121 0.00196439 0.0019955 0.00202437 0.00205082 0.00207468 0.00209581 0.00211408 0.00212937 0.00214158 0.00215064 0.0021565 0.00215911 0.00215847 0.00215458 0.00214747 0.0021372 0.00212385 0.0021075 0.00208827 0.00206629 0.0020417 0.00201468 0.00198539 0.00195403 0.00192077 0.00188584 0.00184942 0.00181174 0.001773 0.00173341 0.00169319 0.00165253 0.00161164 0.00157072 0.00152994 0.0014895 0.00144956 0.00141029 0.00137183 0.00133434 0.00129795 0.00126278 0.00122895 0.00119656 0.00116572 0.0011365 0.00110899 0.00108327 0.00105939 0.00103741 0.00101739 0.000999366 0.000983377 0.000969457 0.000957634 0.00094793 0.000940364 0.00093495 0.000931697 0.000930612 
0.000766658 0.000767619 0.000770501 0.000775302 0.000782019 0.000790648 0.000801183 0.000813615 0.000827933 0.000844127 0.000862181 0.000882075 0.000903789 0.000927297 0.000952568 0.000979567 0.00100825 0.00103858 0.00107049 0.00110394 0.00113883 0.00117511 0.00121269 0.00125147 0.00129135 0.00133221 0.00137394 0.0014164 0.00145944 0.00150291 0.00154666 0.0015905 0.00163426 0.00167774 0.00172076 0.00176312 0.0018046 0.001845 0.00188411 0.00192172 0.00195763 0.00199162 0.0020235 0.00205308 0.00208019 0.00210466 0.00212632 0.00214506 0.00216074 0.00217326 0.00218256 0.00218856 0.00219123 0.00219056 0.00218656 0.00217926 0.00216872 0.002155 0.00213822 0.00211848 0.00209593 0.00207071 0.002043 0.00201296 0.00198081 0.00194673 0.00191093 0.00187363 0.00183505 0.00179539 0.00175488 0.00171373 0.00167215 0.00163035 0.00158853 0.00154688 0.00150557 0.0014648 0.00142471 0.00138548 0.00134724 0.00131014 0.00127429 0.00123981 0.00120682 0.00117541 0.00114566 0.00111766 0.00109148 0.00106719 0.00104483 0.00102447 0.00100614 0.000989883 0.000975732 0.000963714 0.000953851 0.000946162 0.00094066 0.000937355 0.000936253 
0.000772171 0.00077315 0.000776087 0.000780981 0.000787828 0.000796624 0.000807364 0.000820041 0.000834644 0.000851162 0.000869582 0.000889885 0.000912051 0.000936055 0.000961868 0.000989455 0.00101878 0.00104979 0.00108243 0.00111665 0.00115238 0.00118954 0.00122804 0.00126779 0.00130869 0.00135062 0.00139346 0.00143706 0.00148129 0.00152599 0.00157098 0.0016161 0.00166115 0.00170595 0.00175029 0.00179396 0.00183675 0.00187844 0.00191882 0.00195767 0.00199476 0.0020299 0.00206286 0.00209346 0.00212151 0.00214682 0.00216925 0.00218864 0.00220487 0.00221784 0.00222746 0.00223367 0.00223643 0.00223573 0.00223157 0.00222399 0.00221306 0.00219884 0.00218144 0.00216099 0.00213762 0.00211151 0.00208281 0.00205173 0.00201846 0.00198321 0.0019462 0.00190765 0.00186779 0.00182684 0.00178503 0.00174258 0.0016997 0.00165662 0.00161353 0.00157063 0.00152812 0.00148616 0.00144494 0.00140461 0.00136532 0.00132721 0.00129041 0.00125503 0.00122119 0.00118898 0.00115848 0.00112979 0.00110298 0.0010781 0.00105521 0.00103437 0.00101561 0.00099898 0.000984505 0.000972214 0.000962128 0.000954266 0.000948641 0.000945262 0.000944135 
0.000779239 0.000780241 0.00078325 0.000788262 0.000795276 0.000804288 0.000815292 0.000828284 0.000843253 0.00086019 0.000879081 0.000899911 0.00092266 0.000947303 0.000973814 0.00100216 0.0010323 0.00106419 0.00109778 0.001133 0.0011698 0.00120809 0.00124779 0.00128881 0.00133102 0.00137433 0.0014186 0.0014637 0.00150946 0.00155574 0.00160235 0.00164912 0.00169586 0.00174235 0.0017884 0.00183378 0.00187826 0.00192164 0.00196366 0.00200412 0.00204276 0.00207938 0.00211376 0.00214568 0.00217494 0.00220137 0.00222478 0.00224503 0.00226198 0.00227553 0.00228557 0.00229205 0.00229492 0.00229418 0.00228982 0.00228188 0.00227043 0.00225556 0.00223736 0.00221598 0.00219155 0.00216427 0.0021343 0.00210184 0.00206712 0.00203036 0.00199177 0.0019516 0.00191008 0.00186745 0.00182395 0.00177981 0.00173525 0.00169049 0.00164576 0.00160126 0.00155717 0.00151369 0.001471 0.00142925 0.0013886 0.00134919 0.00131116 0.00127461 0.00123967 0.00120642 0.00117497 0.00114539 0.00111775 0.00109211 0.00106854 0.00104708 0.00102777 0.00101066 0.000995763 0.00098312 0.000972748 0.000964663 0.000958878 0.000955404 0.000954246 
0.000787846 0.000788878 0.000791973 0.000797131 0.000804348 0.000813624 0.000824953 0.00083833 0.000853747 0.000871197 0.000890666 0.000912141 0.000935603 0.000961031 0.000988397 0.00101767 0.00104882 0.00108179 0.00111653 0.001153 0.00119111 0.00123079 0.00127196 0.00131453 0.00135837 0.00140337 0.00144941 0.00149634 0.001544 0.00159222 0.00164084 0.00168965 0.00173846 0.00178705 0.00183521 0.0018827 0.00192929 0.00197474 0.00201881 0.00206125 0.00210182 0.00214028 0.00217641 0.00220996 0.00224074 0.00226854 0.00229318 0.0023145 0.00233235 0.00234661 0.00235718 0.00236399 0.00236701 0.0023662 0.00236159 0.00235321 0.00234113 0.00232543 0.00230624 0.0022837 0.00225797 0.00222922 0.00219767 0.00216352 0.002127 0.00208835 0.00204781 0.00200563 0.00196206 0.00191736 0.00187176 0.00182552 0.00177888 0.00173207 0.00168531 0.00163881 0.00159279 0.00154744 0.00150292 0.00145943 0.0014171 0.0013761 0.00133654 0.00129856 0.00126226 0.00122775 0.00119512 0.00116443 0.00113578 0.00110922 0.00108481 0.00106259 0.0010426 0.0010249 0.00100949 0.000996416 0.000985691 0.000977333 0.000971355 0.000967764 0.000966566 
0.000797973 0.000799039 0.000802238 0.000807567 0.000815027 0.000824614 0.000836327 0.00085016 0.000866108 0.000884165 0.000904319 0.000926558 0.000950866 0.000977224 0.00100561 0.00103598 0.00106832 0.00110257 0.0011387 0.00117663 0.0012163 0.00125765 0.00130057 0.00134497 0.00139075 0.00143778 0.00148592 0.00153503 0.00158495 0.00163551 0.00168652 0.00173777 0.00178906 0.00184016 0.00189085 0.00194087 0.00198998 0.00203793 0.00208445 0.00212928 0.00217216 0.00221284 0.00225106 0.00228659 0.00231919 0.00234865 0.00237477 0.00239737 0.0024163 0.00243142 0.00244263 0.00244985 0.00245304 0.00245216 0.00244725 0.00243833 0.00242548 0.0024088 0.00238841 0.00236448 0.00233716 0.00230667 0.00227321 0.00223702 0.00219833 0.00215742 0.00211453 0.00206993 0.0020239 0.0019767 0.0019286 0.00187985 0.00183071 0.00178143 0.00173224 0.00168338 0.00163504 0.00158744 0.00154076 0.00149517 0.00145085 0.00140794 0.00136658 0.00132689 0.00128898 0.00125296 0.00121891 0.00118693 0.00115707 0.00112941 0.001104 0.00108088 0.00106009 0.00104168 0.00102567 0.00101208 0.00100094 0.000992256 0.000986046 0.000982317 0.000981074 
0.000809598 0.000810704 0.000814021 0.000819549 0.000827288 0.000837236 0.000849392 0.000863753 0.000880315 0.000899073 0.00092002 0.000943143 0.000968431 0.000995866 0.00102542 0.00105708 0.0010908 0.00112654 0.00116426 0.0012039 0.00124539 0.00128866 0.00133362 0.00138017 0.00142819 0.00147758 0.00152818 0.00157984 0.0016324 0.00168568 0.00173948 0.00179359 0.00184778 0.00190183 0.00195547 0.00200847 0.00206054 0.00211141 0.00216081 0.00220845 0.00225405 0.00229734 0.00233804 0.00237589 0.00241064 0.00244206 0.00246992 0.00249404 0.00251424 0.00253038 0.00254234 0.00255004 0.00255342 0.00255247 0.0025472 0.00253764 0.00252389 0.00250604 0.00248425 0.00245866 0.00242948 0.00239692 0.00236122 0.00232262 0.00228139 0.00223781 0.00219216 0.00214472 0.0020958 0.00204567 0.00199462 0.00194293 0.00189087 0.0018387 0.00178667 0.00173502 0.00168398 0.00163376 0.00158454 0.00153653 0.00148988 0.00144475 0.00140128 0.00135959 0.00131981 0.00128204 0.00124636 0.00121286 0.00118161 0.00115267 0.00112609 0.00110193 0.00108021 0.00106098 0.00104427 0.00103009 0.00101846 0.0010094 0.00100293 0.000999037 0.00099774 
0.000822693 0.000823844 0.000827296 0.000833049 0.000841105 0.000851462 0.000864122 0.000879082 0.000896342 0.000915898 0.000937744 0.000961874 0.000988276 0.00101694 0.00104783 0.00108095 0.00111624 0.00115368 0.00119322 0.0012348 0.00127837 0.00132384 0.00137112 0.00142013 0.00147073 0.00152282 0.00157623 0.00163082 0.00168642 0.00174282 0.00179983 0.00185722 0.00191476 0.00197219 0.00202926 0.00208568 0.00214116 0.00219542 0.00224815 0.00229904 0.0023478 0.00239411 0.00243768 0.00247823 0.00251547 0.00254916 0.00257905 0.00260494 0.00262662 0.00264394 0.00265678 0.00266504 0.00266866 0.00266761 0.00266192 0.00265163 0.00263682 0.00261762 0.00259418 0.00256668 0.00253534 0.00250038 0.00246206 0.00242067 0.00237649 0.00232981 0.00228096 0.00223024 0.00217797 0.00212445 0.00207 0.00201492 0.00195948 0.00190399 0.00184869 0.00179385 0.00173969 0.00168645 0.00163433 0.00158353 0.00153421 0.00148653 0.00144065 0.00139669 0.00135476 0.00131498 0.00127744 0.00124221 0.00120936 0.00117896 0.00115106 0.00112571 0.00110294 0.00108278 0.00106526 0.0010504 0.00103823 0.00102874 0.00102196 0.00101789 0.00101653 
0.000837227 0.000838428 0.000842031 0.000848037 0.000856447 0.000867263 0.000880486 0.000896118 0.000914159 0.000934608 0.000957464 0.000982722 0.00101037 0.00104041 0.00107281 0.00110756 0.00114462 0.00118397 0.00122556 0.00126934 0.00131524 0.00136319 0.0014131 0.00146487 0.00151839 0.00157353 0.00163013 0.00168804 0.00174706 0.00180701 0.00186767 0.00192879 0.00199014 0.00205143 0.00211239 0.00217272 0.0022321 0.00229023 0.00234676 0.00240138 0.00245374 0.00250351 0.00255038 0.00259402 0.00263413 0.00267043 0.00270266 0.00273057 0.00275396 0.00277265 0.0027865 0.0027954 0.00279929 0.00279814 0.00279196 0.00278082 0.0027648 0.00274404 0.00271871 0.00268901 0.00265517 0.00261745 0.00257615 0.00253155 0.00248397 0.00243376 0.00238124 0.00232676 0.00227066 0.00221328 0.00215495 0.00209599 0.00203672 0.00197743 0.00191841 0.00185993 0.00180225 0.00174559 0.00169018 0.00163621 0.00158386 0.00153331 0.0014847 0.00143817 0.00139383 0.00135178 0.00131213 0.00127495 0.00124031 0.00120828 0.00117889 0.0011522 0.00112823 0.00110703 0.00108861 0.001073 0.0010602 0.00105024 0.00104311 0.00103884 0.00103741 
0.000853164 0.000854421 0.000858191 0.000864476 0.000873278 0.000884601 0.000898449 0.000914824 0.00093373 0.00095517 0.000979144 0.00100565 0.00103469 0.00106625 0.00110032 0.00113689 0.00117592 0.00121739 0.00126126 0.00130748 0.00135599 0.0014067 0.00145955 0.00151442 0.0015712 0.00162975 0.00168992 0.00175154 0.00181442 0.00187836 0.00194311 0.00200844 0.00207407 0.00213971 0.00220507 0.00226981 0.0023336 0.0023961 0.00245695 0.00251579 0.00257225 0.00262596 0.00267657 0.00272374 0.00276711 0.00280639 0.00284128 0.0028715 0.00289684 0.00291709 0.00293209 0.00294173 0.00294592 0.00294465 0.00293793 0.00292581 0.00290841 0.00288587 0.00285839 0.00282617 0.00278949 0.00274863 0.00270391 0.00265567 0.00260424 0.00255001 0.00249333 0.00243458 0.00237415 0.00231239 0.00224966 0.00218633 0.00212272 0.00205916 0.00199595 0.00193339 0.00187173 0.00181123 0.00175212 0.0016946 0.00163887 0.0015851 0.00153344 0.00148403 0.00143699 0.00139242 0.00135043 0.00131107 0.00127444 0.00124057 0.00120953 0.00118135 0.00115606 0.00113369 0.00111427 0.00109782 0.00108434 0.00107384 0.00106634 0.00106183 0.00106033 
0.000870464 0.000871782 0.000875735 0.000882326 0.000891559 0.000903438 0.00091797 0.00093516 0.000955016 0.000977543 0.00100275 0.00103063 0.00106119 0.00109443 0.00113034 0.0011689 0.00121011 0.00125392 0.00130031 0.00134922 0.0014006 0.00145438 0.00151047 0.00156877 0.00162916 0.0016915 0.00175564 0.00182139 0.00188857 0.00195694 0.00202627 0.00209629 0.0021667 0.00223722 0.0023075 0.00237719 0.00244594 0.00251336 0.00257906 0.00264266 0.00270373 0.00276189 0.00281673 0.00286788 0.00291495 0.0029576 0.0029955 0.00302836 0.0030559 0.00307792 0.00309423 0.0031047 0.00310925 0.00310785 0.0031005 0.00308728 0.00306831 0.00304375 0.00301382 0.00297876 0.00293886 0.00289444 0.00284586 0.00279349 0.00273771 0.00267893 0.00261757 0.00255402 0.0024887 0.00242202 0.00235437 0.00228613 0.00221766 0.00214932 0.00208143 0.0020143 0.00194821 0.00188343 0.0018202 0.00175874 0.00169925 0.00164191 0.00158687 0.00153427 0.00148424 0.00143688 0.00139228 0.00135053 0.00131169 0.00127581 0.00124294 0.00121311 0.00118637 0.00116273 0.00114221 0.00112482 0.00111058 0.0010995 0.00109158 0.00108683 0.00108525 
0.000889083 0.000890466 0.000894619 0.000901542 0.000911243 0.000923727 0.000939003 0.000957081 0.00097797 0.00100168 0.00102822 0.0010576 0.00108983 0.0011249 0.00116281 0.00120356 0.00124714 0.00129351 0.00134265 0.00139452 0.00144906 0.0015062 0.00156586 0.00162793 0.00169229 0.00175881 0.00182733 0.00189764 0.00196956 0.00204285 0.00211725 0.00219247 0.00226821 0.00234414 0.0024199 0.00249512 0.00256939 0.00264231 0.00271345 0.00278237 0.00284862 0.00291177 0.00297138 0.003027 0.00307824 0.00312469 0.00316599 0.00320181 0.00323185 0.00325587 0.00327367 0.00328509 0.00329003 0.00328847 0.00328042 0.00326596 0.00324521 0.00321837 0.00318567 0.0031474 0.00310387 0.00305544 0.00300252 0.0029455 0.00288484 0.00282096 0.00275433 0.00268541 0.00261463 0.00254245 0.0024693 0.00239558 0.00232171 0.00224805 0.00217496 0.00210276 0.00203176 0.00196225 0.00189446 0.00182865 0.00176501 0.00170372 0.00164496 0.00158885 0.00153554 0.00148511 0.00143767 0.00139328 0.00135202 0.00131394 0.00127907 0.00124745 0.00121911 0.00119407 0.00117235 0.00115395 0.00113889 0.00112717 0.00111879 0.00111377 0.00111209 
0.000908969 0.000910424 0.000914791 0.000922074 0.00093228 0.000945418 0.000961498 0.000980535 0.00100254 0.00102753 0.00105552 0.00108652 0.00112055 0.0011576 0.00119769 0.00124082 0.00128697 0.00133613 0.00138827 0.00144335 0.00150133 0.00156214 0.00162569 0.00169188 0.0017606 0.00183169 0.001905 0.00198034 0.00205747 0.00213617 0.00221615 0.00229711 0.00237873 0.00246066 0.00254249 0.00262384 0.00270425 0.00278329 0.00286048 0.00293534 0.00300739 0.00307612 0.00314105 0.0032017 0.00325761 0.00330833 0.00335345 0.00339261 0.00342547 0.00345174 0.00347121 0.0034837 0.00348909 0.00348736 0.00347852 0.00346265 0.00343991 0.0034105 0.00337469 0.00333279 0.00328518 0.00323226 0.00317446 0.00311224 0.0030461 0.00297652 0.00290402 0.00282909 0.00275224 0.00267394 0.00259468 0.0025149 0.00243503 0.00235548 0.00227664 0.00219885 0.00212245 0.00204772 0.00197493 0.00190433 0.00183614 0.00177054 0.0017077 0.00164776 0.00159085 0.00153708 0.00148653 0.00143928 0.00139539 0.0013549 0.00131786 0.00128429 0.00125422 0.00122766 0.00120463 0.00118514 0.00116918 0.00115677 0.0011479 0.00114258 0.00114081 
0.000930068 0.0009316 0.000936198 0.000943866 0.000954614 0.000968453 0.000985397 0.00100546 0.00102867 0.00105504 0.00108459 0.00111733 0.0011533 0.00119249 0.00123493 0.00128061 0.00132954 0.00138171 0.00143709 0.00149566 0.00155737 0.00162215 0.00168993 0.00176061 0.00183406 0.00191014 0.00198869 0.00206949 0.00215234 0.00223696 0.00232306 0.00241034 0.00249843 0.00258696 0.0026755 0.00276361 0.00285082 0.00293664 0.00302056 0.00310202 0.00318051 0.00325546 0.00332634 0.00339261 0.00345374 0.00350925 0.00355867 0.00360157 0.00363759 0.0036664 0.00368775 0.00370144 0.00370734 0.00370542 0.00369568 0.00367824 0.00365325 0.00362095 0.00358165 0.0035357 0.00348351 0.00342555 0.00336229 0.00329426 0.00322201 0.00314608 0.00306704 0.00298545 0.00290184 0.00281677 0.00273074 0.00264425 0.00255778 0.00247175 0.00238659 0.00230266 0.00222031 0.00213987 0.00206161 0.00198579 0.00191263 0.00184232 0.00177504 0.00171094 0.00165013 0.00159273 0.00153881 0.00148845 0.00144171 0.00139863 0.00135924 0.00132356 0.00129162 0.00126343 0.00123899 0.00121831 0.0012014 0.00118824 0.00117884 0.0011732 0.00117132 
0.000952319 0.000953933 0.000958776 0.000966856 0.000978182 0.00099277 0.00101064 0.0010318 0.00105629 0.00108413 0.00111535 0.00114996 0.001188 0.00122949 0.00127444 0.00132287 0.00137479 0.00143019 0.00148906 0.00155138 0.00161711 0.00168618 0.00175853 0.00183406 0.00191264 0.00199414 0.00207837 0.00216513 0.00225419 0.00234527 0.00243807 0.00253225 0.00262744 0.00272321 0.00281912 0.00291469 0.00300941 0.00310272 0.00319407 0.00328286 0.0033685 0.00345038 0.00352789 0.00360042 0.00366739 0.00372825 0.00378247 0.00382958 0.00386914 0.0039008 0.00392426 0.0039393 0.00394578 0.00394364 0.0039329 0.00391368 0.00388617 0.00385064 0.00380742 0.00375693 0.00369962 0.00363602 0.00356667 0.00349217 0.00341311 0.00333012 0.00324382 0.00315484 0.00306377 0.0029712 0.00287772 0.00278385 0.00269011 0.00259697 0.00250487 0.00241423 0.0023254 0.00223873 0.00215451 0.002073 0.00199444 0.00191903 0.00184695 0.00177833 0.00171331 0.00165198 0.00159444 0.00154073 0.00149092 0.00144504 0.00140313 0.00136519 0.00133124 0.00130129 0.00127535 0.0012534 0.00123544 0.00122149 0.00121152 0.00120554 0.00120355 