<?xml version="1.0"?>
<VTKFile type="StructuredGrid" version="0.1">
    <StructuredGrid WholeExtent="0 100 0 100 0 0">
        <Piece Extent="0 100 0 100 0 0">
            <Points>
                <DataArray type="Float64" NumberOfComponents="3" format="ascii">
-15 -15 0
-15 -14.7 0
-15 -14.4 0
-15 -14.1 0
-15 -13.8 0
-15 -13.5 0
-15 -13.2 0
-15 -12.9 0
-15 -12.6 0
-15 -12.3 0
-15 -12 0
-15 -11.7 0
-15 -11.4 0
-15 -11.1 0
-15 -10.8 0
-15 -10.5 0
-15 -10.2 0
-15 -9.9 0
-15 -9.6 0
-15 -9.3 0
-15 -9 0
-15 -8.7 0
-15 -8.4 0
-15 -8.1 0
-15 -7.8 0
-15 -7.5 0
-15 -7.2 0
-15 -6.9 0
-15 -6.6 0
-15 -6.3 0
-15 -6 0
-15 -5.7 0
-15 -5.4 0
-15 -5.1 0
-15 -4.8 0
-15 -4.5 0
-15 -4.2 0
-15 -3.9 0
-15 -3.6 0
-15 -3.3 0
-15 -3 0
-15 -2.7 0
-15 -2.4 0
-15 -2.1 0
-15 -1.8 0
-15 -1.5 0
-15 -1.2 0
-15 -0.9 0
-15 -0.6 0
-15 -0.3 0
-15 0 0
-15 0.3 0
-15 0.6 0
-15 0.9 0
-15 1.2 0
-15 1.5 0
-15 1.8 0
-15 2.1 0
-15 2.4 0
-15 2.7 0
-15 3 0
-15 3.3 0
-15 3.6 0
-15 3.9 0
-15 4.2 0
-15 4.5 0
-15 4.8 0
-15 5.1 0
-15 5.4 0
-15 5.7 0
-15 6 0
-15 6.3 0
-15 6.6 0
-15 6.9 0
-15 7.2 0
-15 7.5 0
-15 7.8 0
-15 8.1 0
-15 8.4 0
-15 8.7 0
-15 9 0
-15 9.3 0
-15 9.6 0
-15 9.9 0
-15 10.2 0
-15 10.5 0
-15 10.8 0
-15 11.1 0
-15 11.4 0
-15 11.7 0
-15 12 0
-15 12.3 0
-15 12.6 0
-15 12.9 0
-15 13.2 0
-15 13.5 0
-15 13.8 0
-15 14.1 0
-15 14.4 0
-15 14.7 0
-15 15 0
-14.7 -15 0
-14.7 -14.7 0
-14.7 -14.4 0
-14.7 -14.1 0
-14.7 -13.8 0
-14.7 -13.5 0
-14.7 -13.2 0
-14.7 -12.9 0
-14.7 -12.6 0
-14.7 -12.3 0
-14.7 -12 0
-14.7 -11.7 0
-14.7 -11.4 0
-14.7 -11.1 0
-14.7 -10.8 0
-14.7 -10.5 0
-14.7 -10.2 0
-14.7 -9.9 0
-14.7 -9.6 0
-14.7 -9.3 0
-14.7 -9 0
-14.7 -8.7 0
-14.7 -8.4 0
-14.7 -8.1 0
-14.7 -7.8 0
-14.7 -7.5 0
-14.7 -7.2 0
-14.7 -6.9 0
-14.7 -6.6 0
-14.7 -6.3 0
-14.7 -6 0
-14.7 -5.7 0
-14.7 -5.4 0
-14.7 -5.1 0
-14.7 -4.8 0
-14.7 -4.5 0
-14.7 -4.2 0
-14.7 -3.9 0
-14.7 -3.6 0
-14.7 -3.3 0
-14.7 -3 0
-14.7 -2.7 0
-14.7 -2.4 0
-14.7 -2.1 0
-14.7 -1.8 0
-14.7 -1.5 0
-14.7 -1.2 0
-14.7 -0.9 0
-14.7 -0.6 0
-14.7 -0.3 0
-14.7 0 0
-14.7 0.3 0
-14.7 0.6 0
-14.7 0.9 0
-14.7 1.2 0
-14.7 1.5 0
-14.7 1.8 0
-14.7 2.1 0
-14.7 2.4 0
-14.7 2.7 0
-14.7 3 0
-14.7 3.3 0
-14.7 3.6 0
-14.7 3.9 0
-14.7 4.2 0
-14.7 4.5 0
-14.7 4.8 0
-14.7 5.1 0
-14.7 5.4 0
-14.7 5.7 0
-14.7 6 0
-14.7 6.3 0
-14.7 6.6 0
-14.7 6.9 0
-14.7 7.2 0
-14.7 7.5 0
-14.7 7.8 0
-14.7 8.1 0
-14.7 8.4 0
-14.7 8.7 0
-14.7 9 0
-14.7 9.3 0
-14.7 9.6 0
-14.7 9.9 0
-14.7 10.2 0
-14.7 10.5 0
-14.7 10.8 0
-14.7 11.1 0
-14.7 11.4 0
-14.7 11.7 0
-14.7 12 0
-14.7 12.3 0
-14.7 12.6 0
-14.7 12.9 0
-14.7 13.2 0
-14.7 13.5 0
-14.7 13.8 0
-14.7 14.1 0
-14.7 14.4 0
-14.7 14.7 0
-14.7 15 0
-14.4 -15 0
-14.4 -14.7 0
-14.4 -14.4 0
-14.4 -14.1 0
-14.4 -13.8 0
-14.4 -13.5 0
-14.4 -13.2 0
-14.4 -12.9 0
-14.4 -12.6 0
-14.4 -12.3 0
-14.4 -12 0
-14.4 -11.7 0
-14.4 -11.4 0
-14.4 -11.1 0
-14.4 -10.8 0
-14.4 -10.5 0
-14.4 -10.2 0
-14.4 -9.9 0
-14.4 -9.6 0
-14.4 -9.3 0
-14.4 -9 0
-14.4 -8.7 0
-14.4 -8.4 0
-14.4 -8.1 0
-14.4 -7.8 0
-14.4 -7.5 0
-14.4 -7.2 0
-14.4 -6.9 0
-14.4 -6.6 0
-14.4 -6.3 0
-14.4 -6 0
-14.4 -5.7 0
-14.4 -5.4 0
-14.4 -5.1 0
-14.4 -4.8 0
-14.4 -4.5 0
-14.4 -4.2 0
-14.4 -3.9 0
-14.4 -3.6 0
-14.4 -3.3 0
-14.4 -3 0
-14.4 -2.7 0
-14.4 -2.4 0
-14.4 -2.1 0
-14.4 -1.8 0
-14.4 -1.5 0
-14.4 -1.2 0
-14.4 -0.9 0
-14.4 -0.6 0
-14.4 -0.3 0
-14.4 0 0
-14.4 0.3 0
-14.4 0.6 0
-14.4 0.9 0
-14.4 1.2 0
-14.4 1.5 0
-14.4 1.8 0
-14.4 2.1 0
-14.4 2.4 0
-14.4 2.7 0
-14.4 3 0
-14.4 3.3 0
-14.4 3.6 0
-14.4 3.9 0
-14.4 4.2 0
-14.4 4.5 0
-14.4 4.8 0
-14.4 5.1 0
-14.4 5.4 0
-14.4 5.7 0
-14.4 6 0
-14.4 6.3 0
-14.4 6.6 0
-14.4 6.9 0
-14.4 7.2 0
-14.4 7.5 0
-14.4 7.8 0
-14.4 8.1 0
-14.4 8.4 0
-14.4 8.7 0
-14.4 9 0
-14.4 9.3 0
-14.4 9.6 0
-14.4 9.9 0
-14.4 10.2 0
-14.4 10.5 0
-14.4 10.8 0
-14.4 11.1 0
-14.4 11.4 0
-14.4 11.7 0
-14.4 12 0
-14.4 12.3 0
-14.4 12.6 0
-14.4 12.9 0
-14.4 13.2 0
-14.4 13.5 0
-14.4 13.8 0
-14.4 14.1 0
-14.4 14.4 0
-14.4 14.7 0
-14.4 15 0
-14.1 -15 0
-14.1 -14.7 0
-14.1 -14.4 0
-14.1 -14.1 0
-14.1 -13.8 0
-14.1 -13.5 0
-14.1 -13.2 0
-14.1 -12.9 0
-14.1 -12.6 0
-14.1 -12.3 0
-14.1 -12 0
-14.1 -11.7 0
-14.1 -11.4 0
-14.1 -11.1 0
-14.1 -10.8 0
-14.1 -10.5 0
-14.1 -10.2 0
-14.1 -9.9 0
-14.1 -9.6 0
-14.1 -9.3 0
-14.1 -9 0
-14.1 -8.7 0
-14.1 -8.4 0
-14.1 -8.1 0
-14.1 -7.8 0
-14.1 -7.5 0
-14.1 -7.2 0
-14.1 -6.9 0
-14.1 -6.6 0
-14.1 -6.3 0
-14.1 -6 0
-14.1 -5.7 0
-14.1 -5.4 0
-14.1 -5.1 0
-14.1 -4.8 0
-14.1 -4.5 0
-14.1 -4.2 0
-14.1 -3.9 0
-14.1 -3.6 0
-14.1 -3.3 0
-14.1 -3 0
-14.1 -2.7 0
-14.1 -2.4 0
-14.1 -2.1 0
-14.1 -1.8 0
-14.1 -1.5 0
-14.1 -1.2 0
-14.1 -0.9 0
-14.1 -0.6 0
-14.1 -0.3 0
-14.1 0 0
-14.1 0.3 0
-14.1 0.6 0
-14.1 0.9 0
-14.1 1.2 0
-14.1 1.5 0
-14.1 1.8 0
-14.1 2.1 0
-14.1 2.4 0
-14.1 2.7 0
-14.1 3 0
-14.1 3.3 0
-14.1 3.6 0
-14.1 3.9 0
-14.1 4.2 0
-14.1 4.5 0
-14.1 4.8 0
-14.1 5.1 0
-14.1 5.4 0
-14.1 5.7 0
-14.1 6 0
-14.1 6.3 0
-14.1 6.6 0
-14.1 6.9 0
-14.1 7.2 0
-14.1 7.5 0
-14.1 7.8 0
-14.1 8.1 0
-14.1 8.4 0
-14.1 8.7 0
-14.1 9 0
-14.1 9.3 0
-14.1 9.6 0
-14.1 9.9 0
-14.1 10.2 0
-14.1 10.5 0
-14.1 10.8 0
-14.1 11.1 0
-14.1 11.4 0
-14.1 11.7 0
-14.1 12 0
-14.1 12.3 0
-14.1 12.6 0
-14.1 12.9 0
-14.1 13.2 0
-14.1 13.5 0
-14.1 13.8 0
-14.1 14.1 0
-14.1 14.4 0
-14.1 14.7 0
-14.1 15 0
-13.8 -15 0
-13.8 -14.7 0
-13.8 -14.4 0
-13.8 -14.1 0
-13.8 -13.8 0
-13.8 -13.5 0
-13.8 -13.2 0
-13.8 -12.9 0
-13.8 -12.6 0
-13.8 -12.3 0
-13.8 -12 0
-13.8 -11.7 0
-13.8 -11.4 0
-13.8 -11.1 0
-13.8 -10.8 0
-13.8 -10.5 0
-13.8 -10.2 0
-13.8 -9.9 0
-13.8 -9.6 0
-13.8 -9.3 0
-13.8 -9 0
-13.8 -8.7 0
-13.8 -8.4 0
-13.8 -8.1 0
-13.8 -7.8 0
-13.8 -7.5 0
-13.8 -7.2 0
-13.8 -6.9 0
-13.8 -6.6 0
-13.8 -6.3 0
-13.8 -6 0
-13.8 -5.7 0
-13.8 -5.4 0
-13.8 -5.1 0
-13.8 -4.8 0
-13.8 -4.5 0
-13.8 -4.2 0
-13.8 -3.9 0
-13.8 -3.6 0
-13.8 -3.3 0
-13.8 -3 0
-13.8 -2.7 0
-13.8 -2.4 0
-13.8 -2.1 0
-13.8 -1.8 0
-13.8 -1.5 0
-13.8 -1.2 0
-13.8 -0.9 0
-13.8 -0.6 0
-13.8 -0.3 0
-13.8 0 0
-13.8 0.3 0
-13.8 0.6 0
-13.8 0.9 0
-13.8 1.2 0
-13.8 1.5 0
-13.8 1.8 0
-13.8 2.1 0
-13.8 2.4 0
-13.8 2.7 0
-13.8 3 0
-13.8 3.3 0
-13.8 3.6 0
-13.8 3.9 0
-13.8 4.2 0
-13.8 4.5 0
-13.8 4.8 0
-13.8 5.1 0
-13.8 5.4 0
-13.8 5.7 0
-13.8 6 0
-13.8 6.3 0
-13.8 6.6 0
-13.8 6.9 0
-13.8 7.2 0
-13.8 7.5 0
-13.8 7.8 0
-13.8 8.1 0
-13.8 8.4 0
-13.8 8.7 0
-13.8 9 0
-13.8 9.3 0
-13.8 9.6 0
-13.8 9.9 0
-13.8 10.2 0
-13.8 10.5 0
-13.8 10.8 0
-13.8 11.1 0
-13.8 11.4 0
-13.8 11.7 0
-13.8 12 0
-13.8 12.3 0
-13.8 12.6 0
-13.8 12.9 0
-13.8 13.2 0
-13.8 13.5 0
-13.8 13.8 0
-13.8 14.1 0
-13.8 14.4 0
-13.8 14.7 0
-13.8 15 0
-13.5 -15 0
-13.5 -14.7 0
-13.5 -14.4 0
-13.5 -14.1 0
-13.5 -13.8 0
-13.5 -13.5 0
-13.5 -13.2 0
-13.5 -12.9 0
-13.5 -12.6 0
-13.5 -12.3 0
-13.5 -12 0
-13.5 -11.7 0
-13.5 -11.4 0
-13.5 -11.1 0
-13.5 -10.8 0
-13.5 -10.5 0
-13.5 -10.2 0
-13.5 -9.9 0
-13.5 -9.6 0
-13.5 -9.3 0
-13.5 -9 0
-13.5 -8.7 0
-13.5 -8.4 0
-13.5 -8.1 0
-13.5 -7.8 0
-13.5 -7.5 0
-13.5 -7.2 0
-13.5 -6.9 0
-13.5 -6.6 0
-13.5 -6.3 0
-13.5 -6 0
-13.5 -5.7 0
-13.5 -5.4 0
-13.5 -5.1 0
-13.5 -4.8 0
-13.5 -4.5 0
-13.5 -4.2 0
-13.5 -3.9 0
-13.5 -3.6 0
-13.5 -3.3 0
-13.5 -3 0
-13.5 -2.7 0
-13.5 -2.4 0
-13.5 -2.1 0
-13.5 -1.8 0
-13.5 -1.5 0
-13.5 -1.2 0
-13.5 -0.9 0
-13.5 -0.6 0
-13.5 -0.3 0
-13.5 0 0
-13.5 0.3 0
-13.5 0.6 0
-13.5 0.9 0
-13.5 1.2 0
-13.5 1.5 0
-13.5 1.8 0
-13.5 2.1 0
-13.5 2.4 0
-13.5 2.7 0
-13.5 3 0
-13.5 3.3 0
-13.5 3.6 0
-13.5 3.9 0
-13.5 4.2 0
-13.5 4.5 0
-13.5 4.8 0
-13.5 5.1 0
-13.5 5.4 0
-13.5 5.7 0
-13.5 6 0
-13.5 6.3 0
-13.5 6.6 0
-13.5 6.9 0
-13.5 7.2 0
-13.5 7.5 0
-13.5 7.8 0
-13.5 8.1 0
-13.5 8.4 0
-13.5 8.7 0
-13.5 9 0
-13.5 9.3 0
-13.5 9.6 0
-13.5 9.9 0
-13.5 10.2 0
-13.5 10.5 0
-13.5 10.8 0
-13.5 11.1 0
-13.5 11.4 0
-13.5 11.7 0
-13.5 12 0
-13.5 12.3 0
-13.5 12.6 0
-13.5 12.9 0
-13.5 13.2 0
-13.5 13.5 0
-13.5 13.8 0
-13.5 14.1 0
-13.5 14.4 0
-13.5 14.7 0
-13.5 15 0
-13.2 -15 0
-13.2 -14.7 0
-13.2 -14.4 0
-13.2 -14.1 0
-13.2 -13.8 0
-13.2 -13.5 0
-13.2 -13.2 0
-13.2 -12.9 0
-13.2 -12.6 0
-13.2 -12.3 0
-13.2 -12 0
-13.2 -11.7 0
-13.2 -11.4 0
-13.2 -11.1 0
-13.2 -10.8 0
-13.2 -10.5 0
-13.2 -10.2 0
-13.2 -9.9 0
-13.2 -9.6 0
-13.2 -9.3 0
-13.2 -9 0
-13.2 -8.7 0
-13.2 -8.4 0
-13.2 -8.1 0
-13.2 -7.8 0
-13.2 -7.5 0
-13.2 -7.2 0
-13.2 -6.9 0
-13.2 -6.6 0
-13.2 -6.3 0
-13.2 -6 0
-13.2 -5.7 0
-13.2 -5.4 0
-13.2 -5.1 0
-13.2 -4.8 0
-13.2 -4.5 0
-13.2 -4.2 0
-13.2 -3.9 0
-13.2 -3.6 0
-13.2 -3.3 0
-13.2 -3 0
-13.2 -2.7 0
-13.2 -2.4 0
-13.2 -2.1 0
-13.2 -1.8 0
-13.2 -1.5 0
-13.2 -1.2 0
-13.2 -0.9 0
-13.2 -0.6 0
-13.2 -0.3 0
-13.2 0 0
-13.2 0.3 0
-13.2 0.6 0
-13.2 0.9 0
-13.2 1.2 0
-13.2 1.5 0
-13.2 1.8 0
-13.2 2.1 0
-13.2 2.4 0
-13.2 2.7 0
-13.2 3 0
-13.2 3.3 0
-13.2 3.6 0
-13.2 3.9 0
-13.2 4.2 0
-13.2 4.5 0
-13.2 4.8 0
-13.2 5.1 0
-13.2 5.4 0
-13.2 5.7 0
-13.2 6 0
-13.2 6.3 0
-13.2 6.6 0
-13.2 6.9 0
-13.2 7.2 0
-13.2 7.5 0
-13.2 7.8 0
-13.2 8.1 0
-13.2 8.4 0
-13.2 8.7 0
-13.2 9 0
-13.2 9.3 0
-13.2 9.6 0
-13.2 9.9 0
-13.2 10.2 0
-13.2 10.5 0
-13.2 10.8 0
-13.2 11.1 0
-13.2 11.4 0
-13.2 11.7 0
-13.2 12 0
-13.2 12.3 0
-13.2 12.6 0
-13.2 12.9 0
-13.2 13.2 0
-13.2 13.5 0
-13.2 13.8 0
-13.2 14.1 0
-13.2 14.4 0
-13.2 14.7 0
-13.2 15 0
-12.9 -15 0
-12.9 -14.7 0
-12.9 -14.4 0
-12.9 -14.1 0
-12.9 -13.8 0
-12.9 -13.5 0
-12.9 -13.2 0
-12.9 -12.9 0
-12.9 -12.6 0
-12.9 -12.3 0
-12.9 -12 0
-12.9 -11.7 0
-12.9 -11.4 0
-12.9 -11.1 0
-12.9 -10.8 0
-12.9 -10.5 0
-12.9 -10.2 0
-12.9 -9.9 0
-12.9 -9.6 0
-12.9 -9.3 0
-12.9 -9 0
-12.9 -8.7 0
-12.9 -8.4 0
-12.9 -8.1 0
-12.9 -7.8 0
-12.9 -7.5 0
-12.9 -7.2 0
-12.9 -6.9 0
-12.9 -6.6 0
-12.9 -6.3 0
-12.9 -6 0
-12.9 -5.7 0
-12.9 -5.4 0
-12.9 -5.1 0
-12.9 -4.8 0
-12.9 -4.5 0
-12.9 -4.2 0
-12.9 -3.9 0
-12.9 -3.6 0
-12.9 -3.3 0
-12.9 -3 0
-12.9 -2.7 0
-12.9 -2.4 0
-12.9 -2.1 0
-12.9 -1.8 0
-12.9 -1.5 0
-12.9 -1.2 0
-12.9 -0.9 0
-12.9 -0.6 0
-12.9 -0.3 0
-12.9 0 0
-12.9 0.3 0
-12.9 0.6 0
-12.9 0.9 0
-12.9 1.2 0
-12.9 1.5 0
-12.9 1.8 0
-12.9 2.1 0
-12.9 2.4 0
-12.9 2.7 0
-12.9 3 0
-12.9 3.3 0
-12.9 3.6 0
-12.9 3.9 0
-12.9 4.2 0
-12.9 4.5 0
-12.9 4.8 0
-12.9 5.1 0
-12.9 5.4 0
-12.9 5.7 0
-12.9 6 0
-12.9 6.3 0
-12.9 6.6 0
-12.9 6.9 0
-12.9 7.2 0
-12.9 7.5 0
-12.9 7.8 0
-12.9 8.1 0
-12.9 8.4 0
-12.9 8.7 0
-12.9 9 0
[...]
            <PointData>
                <DataArray type="Float64" Name="c1" format="ascii">
0.0039273 0.00393191 0.00394575 0.00396884 0.00400123 0.004043 0.00409424 0.00415504 0.00422554 0.0043059 0.00439629 0.00449691 0.00460798 0.00472974 0.00486245 0.00500642 0.00516193 0.00532933 0.00550894 0.00570114 0.00590627 0.0061247 0.00635679 0.00660287 0.00686324 0.00713813 0.00742772 0.00773202 0.00805092 0.00838399 0.00873037 0.00908779 0.00944926 0.00979825 0.0101291 0.0104431 0.0107385 0.0109732 0.0111658 0.01135 0.0115416 0.0117309 0.011938 0.0121569 0.0123853 0.0126179 0.0128385 0.0130096 0.0131337 0.0132148 0.0132589 0.0132972 0.0132915 0.0132547 0.0131999 0.0131193 0.0129972 0.0128332 0.0126703 0.0125132 0.0123603 0.0122094 0.0120574 0.0118986 0.0117248 0.011531 0.0113169 0.0110864 0.0108409 0.0105783 0.0102983 0.0100056 0.00970627 0.00940554 0.00910762 0.00881549 0.00853119 0.00825609 0.0079911 0.00773686 0.00749379 0.00726218 0.00704224 0.00683412 0.00663791 0.00645368 0.00628145 0.00612125 0.00597308 0.00583692 0.00571276 0.00560057 0.00550031 0.00541196 0.00533548 0.00527082 0.00521797 0.0051769 0.00514758 0.00512999 0.00512413 
0.00392826 0.00393288 0.00394672 0.00396984 0.00400226 0.00404406 0.00409534 0.00415619 0.00422675 0.00430718 0.00439765 0.00449835 0.00460952 0.00473139 0.00486422 0.00500832 0.00516399 0.00533155 0.00551136 0.00570376 0.00590912 0.00612781 0.00636018 0.00660659 0.00686732 0.00714264 0.0074327 0.00773757 0.00805719 0.00839142 0.00874014 0.00910271 0.00947313 0.00982319 0.0101516 0.0104652 0.0107812 0.0110062 0.0111817 0.0113575 0.0115545 0.0117351 0.0119474 0.0121695 0.0124018 0.0126436 0.0128835 0.0130539 0.0131761 0.013254 0.0132815 0.0133369 0.0133233 0.0132802 0.0132305 0.0131593 0.0130381 0.012853 0.0126879 0.0125316 0.0123798 0.0122306 0.0120817 0.0119273 0.0117562 0.0115629 0.0113468 0.0111151 0.0108702 0.010607 0.0103239 0.0100275 0.0097247 0.00942119 0.00912112 0.00882734 0.00854173 0.00826556 0.00799966 0.00774463 0.00750085 0.0072686 0.00704808 0.00683944 0.00664276 0.0064581 0.00628549 0.00612495 0.00597647 0.00584005 0.00571565 0.00560325 0.00550282 0.00541431 0.00533769 0.00527294 0.00522 0.00517886 0.00514949 0.00513188 0.005126 
0.00393115 0.00393578 0.00394966 0.00397282 0.00400532 0.00404723 0.00409863 0.00415963 0.00423037 0.004311 0.0044017 0.00450266 0.00461412 0.00473632 0.00486952 0.00501403 0.00517015 0.00533821 0.00551857 0.00571159 0.00591763 0.00613709 0.00637032 0.00661769 0.00687951 0.00715606 0.00744753 0.00775402 0.00807561 0.00841277 0.00876749 0.00914512 0.00955393 0.00990206 0.0102169 0.0105107 0.0107474 0.0108937 0.0110778 0.0112859 0.0115266 0.0117349 0.0119781 0.0122067 0.0124464 0.0127102 0.0129048 0.0130541 0.0131716 0.0132557 0.0133144 0.013329 0.0132695 0.0132327 0.0131959 0.0131651 0.0130629 0.0128927 0.0127373 0.0125863 0.0124376 0.0122927 0.0121535 0.0120151 0.0118533 0.011661 0.0114357 0.0111999 0.0109596 0.0106956 0.0104013 0.0100927 0.00977928 0.00946747 0.0091611 0.0088625 0.0085731 0.00829381 0.00802525 0.00776786 0.00752197 0.00728781 0.00706557 0.00685536 0.00665727 0.00647133 0.00629758 0.00613602 0.00598664 0.00584941 0.0057243 0.00561129 0.00551031 0.00542134 0.00534434 0.00527926 0.00522606 0.00518472 0.00515521 0.00513751 0.00513161 
0.00393595 0.00394059 0.00395452 0.00397778 0.00401041 0.00405248 0.00410409 0.00416534 0.00423637 0.00431734 0.00440842 0.00450981 0.00462176 0.0047445 0.00487831 0.00502349 0.00518035 0.00534925 0.00553052 0.00572456 0.00593173 0.00615244 0.00638707 0.00663601 0.0068996 0.00717816 0.00747189 0.00778088 0.00810518 0.00844528 0.00880413 0.00919245 0.00960152 0.00991604 0.0101988 0.0104411 0.0106106 0.0107935 0.011 0.0112311 0.0114787 0.0117819 0.0120557 0.0122695 0.0125054 0.0127336 0.0128741 0.0130088 0.0131242 0.0132176 0.0132957 0.0132864 0.0132663 0.0132424 0.0132075 0.013156 0.0130709 0.0129551 0.0128217 0.0126788 0.0125323 0.0123905 0.0122667 0.0121693 0.0120246 0.0118365 0.0115797 0.0113328 0.0111149 0.010855 0.0105315 0.0101992 0.0098675 0.00954217 0.00922594 0.00891992 0.00862463 0.00834042 0.00806758 0.00780637 0.00755702 0.00731972 0.00709461 0.0068818 0.00668136 0.00649331 0.00631766 0.0061544 0.00600351 0.00586494 0.00573866 0.00562462 0.00552275 0.00543302 0.00535536 0.00528974 0.00523611 0.00519444 0.0051647 0.00514686 0.00514092 
0.00394262 0.00394729 0.0039613 0.00398468 0.00401749 0.0040598 0.00411169 0.00417329 0.00424472 0.00432615 0.00441776 0.00451976 0.00463238 0.00475588 0.00489053 0.00503664 0.00519454 0.00536458 0.00554712 0.00574255 0.00595128 0.0061737 0.00641023 0.00666128 0.00692727 0.00720854 0.00750536 0.00781775 0.00814527 0.00848682 0.00884086 0.00920685 0.00954198 0.00980846 0.0100585 0.0102832 0.0104997 0.0107158 0.0109442 0.0112062 0.0114861 0.011816 0.0120952 0.0123478 0.0125851 0.0127439 0.0128837 0.0130158 0.0131315 0.013225 0.0132911 0.0133142 0.0133213 0.0133152 0.0132869 0.0132309 0.0131575 0.0130714 0.0129544 0.0128152 0.0126629 0.0125118 0.0123957 0.0122639 0.0121343 0.0119782 0.0117602 0.0114819 0.0112305 0.0110003 0.0107088 0.0103416 0.00998405 0.00964131 0.00931301 0.00899795 0.00869532 0.00840478 0.00812626 0.00785988 0.00760578 0.00736413 0.00713505 0.00691862 0.0067149 0.0065239 0.0063456 0.00617998 0.00602698 0.00588656 0.00575864 0.00564316 0.00554005 0.00544925 0.00537069 0.00530432 0.0052501 0.00520796 0.00517789 0.00515986 0.00515385 
0.00395113 0.00395583 0.00396994 0.00399349 0.00402652 0.00406912 0.00412138 0.00418342 0.00425536 0.00433739 0.00442967 0.00453244 0.00464591 0.00477037 0.00490608 0.00505338 0.00521259 0.00538408 0.00556823 0.00576543 0.0059761 0.00620065 0.00643953 0.00669319 0.00696209 0.0072467 0.00754745 0.00786447 0.00819701 0.00854195 0.00889099 0.00922884 0.00950887 0.00973332 0.00996488 0.0101681 0.0104375 0.0106747 0.010904 0.0112102 0.0115154 0.0118228 0.0121133 0.0123975 0.0126224 0.0127786 0.0129299 0.013069 0.0131915 0.0132914 0.0133667 0.0134179 0.0134486 0.0134631 0.0134451 0.0133775 0.0133009 0.0132552 0.0131489 0.0130053 0.0128337 0.0126397 0.0125042 0.0123337 0.0121701 0.0119993 0.0118319 0.0115924 0.0113079 0.0110576 0.0108261 0.0105096 0.0101198 0.00975901 0.00941895 0.00909475 0.00878416 0.00848628 0.00820091 0.0079281 0.00766802 0.00742084 0.00718668 0.00696562 0.00675771 0.00656292 0.00638124 0.00621259 0.00605691 0.00591411 0.0057841 0.00566679 0.00556209 0.00546993 0.00539022 0.0053229 0.00526791 0.00522519 0.0051947 0.00517642 0.00517033 
0.00396143 0.00396617 0.00398039 0.00400414 0.00403745 0.00408041 0.00413311 0.00419567 0.00426824 0.00435098 0.00444408 0.00454776 0.00466227 0.00478788 0.00492488 0.0050736 0.00523439 0.00540763 0.0055937 0.00579301 0.006006 0.00623308 0.00647471 0.00673136 0.00700356 0.00729196 0.00759732 0.00792047 0.00826173 0.00861852 0.00897701 0.00928379 0.00949661 0.00967859 0.00993351 0.0102046 0.0104759 0.0107082 0.0109884 0.0112947 0.0115856 0.0118795 0.0121653 0.0124288 0.0126506 0.0128406 0.0130146 0.0131652 0.0133034 0.0134154 0.013508 0.0135929 0.0136654 0.0137073 0.0137205 0.0136894 0.013595 0.0135353 0.0134223 0.0132657 0.0130686 0.0128287 0.0126144 0.0124528 0.0122781 0.0120893 0.0118864 0.011658 0.0114003 0.0111413 0.0108827 0.0106196 0.0102592 0.00988816 0.00954073 0.00920901 0.00889049 0.00858455 0.00829122 0.00801077 0.00774347 0.00748957 0.00724924 0.00702255 0.00680953 0.00661016 0.00642436 0.00625204 0.0060931 0.00594742 0.00581487 0.00569534 0.00558873 0.00549492 0.00541382 0.00534534 0.00528942 0.00524599 0.005215 0.00519643 0.00519024 
0.00397345 0.00397824 0.0039926 0.00401657 0.00405021 0.00409358 0.0041468 0.00420998 0.00428326 0.00436683 0.00446088 0.00456563 0.00468134 0.00480829 0.00494678 0.00509716 0.00525978 0.00543505 0.00562335 0.00582512 0.00604078 0.00627076 0.0065155 0.00677546 0.00705118 0.00734341 0.00765337 0.00798313 0.00833632 0.00871908 0.00904341 0.00930741 0.00950583 0.00974734 0.0100168 0.0102991 0.0105388 0.0108033 0.0111106 0.0113874 0.0116811 0.0119744 0.0122619 0.0125194 0.0127464 0.0129586 0.0131472 0.0132975 0.0134707 0.0135964 0.0137243 0.0138563 0.0139586 0.0140295 0.0140744 0.0140968 0.014015 0.0139155 0.013784 0.0136107 0.0133897 0.0131098 0.0128098 0.0126417 0.0124622 0.012261 0.0120365 0.0118001 0.0115411 0.0112682 0.0109838 0.0106854 0.0103807 0.0100249 0.00967808 0.00934098 0.00901451 0.0086996 0.00839709 0.00810767 0.00783186 0.00757003 0.00732241 0.00708909 0.00687007 0.00666531 0.00647468 0.00629807 0.00613531 0.00598626 0.00585075 0.00572864 0.00561978 0.00552404 0.00544132 0.0053715 0.00531449 0.00527023 0.00523866 0.00521973 0.00521343 
0.00398713 0.00399197 0.00400648 0.00403071 0.00406472 0.00410856 0.00416236 0.00422624 0.00430035 0.00438486 0.00447998 0.00458594 0.004703 0.00483147 0.00497165 0.0051239 0.00528859 0.00546615 0.00565698 0.00586153 0.00608023 0.0063135 0.00656172 0.00682528 0.0071046 0.00740032 0.00771365 0.00804719 0.00840678 0.00877187 0.00904452 0.00930543 0.00955362 0.00982996 0.0100725 0.0103428 0.0106138 0.0108957 0.0111891 0.0114978 0.0118093 0.0121157 0.0124071 0.0126667 0.0129212 0.0131513 0.0133509 0.013547 0.0137164 0.0138343 0.0140195 0.0141912 0.0143252 0.0144227 0.0144871 0.0145195 0.0144798 0.014377 0.0142356 0.0140502 0.0138151 0.0135241 0.0131696 0.0128995 0.0127281 0.0125149 0.0122714 0.012016 0.0117434 0.0114496 0.0111392 0.0108323 0.0105234 0.0101833 0.00983675 0.00949319 0.00915732 0.00883183 0.00851851 0.00821859 0.00793286 0.00766184 0.0074058 0.00716484 0.00693895 0.00672801 0.00653188 0.00635036 0.00618326 0.00603037 0.00589149 0.00576643 0.00565502 0.0055571 0.00547253 0.00540118 0.00534294 0.00529774 0.0052655 0.00524618 0.00523974 
0.00400239 0.00400728 0.00402197 0.00404649 0.00408089 0.00412527 0.00417972 0.00424437 0.00431938 0.00440494 0.00450125 0.00460855 0.00472712 0.00485726 0.00499931 0.00515363 0.00532063 0.00550073 0.00569438 0.00590204 0.00612416 0.00636113 0.00661329 0.00688087 0.00716401 0.00746284 0.00777781 0.0081101 0.00846206 0.00879151 0.00906424 0.00932968 0.00959114 0.00985935 0.0101315 0.0104201 0.0107135 0.0110131 0.0113187 0.0116452 0.011976 0.0122993 0.0126023 0.0128835 0.0131569 0.0134118 0.0136491 0.0138877 0.0140272 0.014175 0.0144078 0.0146089 0.0147715 0.0148943 0.0149797 0.0150319 0.0150436 0.0149298 0.0147822 0.014589 0.0143444 0.0140483 0.0137098 0.0133466 0.0130982 0.0128541 0.0125859 0.0123035 0.0120147 0.0116906 0.011372 0.01106 0.0107282 0.0103793 0.0100235 0.00966876 0.00932028 0.0089817 0.00865547 0.00834324 0.00804606 0.00776452 0.00749892 0.00724934 0.0070157 0.00679785 0.00659555 0.00640856 0.00623661 0.00607944 0.0059368 0.00580847 0.00569422 0.00559386 0.00550723 0.00543417 0.00537457 0.00532832 0.00529534 0.00527557 0.00526899 
0.00401912 0.00402408 0.00403896 0.00406379 0.00409864 0.00414359 0.00419875 0.00426425 0.00434026 0.00442695 0.00452456 0.00463333 0.00475353 0.0048855 0.00502958 0.00518616 0.00535566 0.00553854 0.00573528 0.00594638 0.00617231 0.00641349 0.0066702 0.00694252 0.00723019 0.00753257 0.00784882 0.00817832 0.00852179 0.00883146 0.00910433 0.00937435 0.00964197 0.00991159 0.0102068 0.0105232 0.0108385 0.0111565 0.0114789 0.0118216 0.012173 0.0125174 0.0128481 0.0131564 0.0134515 0.013729 0.0139891 0.0142307 0.0144362 0.0146592 0.0148666 0.0151113 0.0153034 0.0154496 0.0155536 0.0156201 0.0156656 0.0155719 0.0154285 0.0152315 0.0149759 0.0146641 0.0143213 0.0139406 0.0135873 0.0132814 0.0129694 0.0126614 0.0123685 0.0120186 0.0116877 0.011342 0.0109829 0.010614 0.010241 0.00986938 0.00950417 0.00914932 0.00880766 0.00848112 0.00817083 0.00787742 0.00760113 0.00734197 0.00709978 0.00687431 0.00666523 0.00647223 0.00629496 0.00613311 0.00598636 0.00585443 0.00573708 0.00563405 0.00554517 0.00547025 0.00540915 0.00536175 0.00532795 0.0053077 0.00530096 
0.00403725 0.00404227 0.00405735 0.00408253 0.00411786 0.00416343 0.00421936 0.00428577 0.00436285 0.00445077 0.00454978 0.00466012 0.00478208 0.00491601 0.00506227 0.00522126 0.00539344 0.00557931 0.00577938 0.00599422 0.00622437 0.00647031 0.00673238 0.00701057 0.00730425 0.0076119 0.00793086 0.00825756 0.00858915 0.00887226 0.00916636 0.00944051 0.00970963 0.00997487 0.0102929 0.0106524 0.0109866 0.0113202 0.0116594 0.0120245 0.0123997 0.0127709 0.013131 0.0134737 0.0137979 0.0141037 0.0143947 0.0146681 0.0149192 0.0152245 0.0154674 0.0157318 0.015942 0.0161059 0.0162214 0.0162944 0.016327 0.0163061 0.0161853 0.0159883 0.0157183 0.0153631 0.0150205 0.0146056 0.0141501 0.0137727 0.0134079 0.0130675 0.0127658 0.0124318 0.0120605 0.0116751 0.0112823 0.0108861 0.0104893 0.0100954 0.00970886 0.00933415 0.00897431 0.00863133 0.00830628 0.00799969 0.00771165 0.00744203 0.00719054 0.0069568 0.00674039 0.0065409 0.00635789 0.00619098 0.0060398 0.005904 0.00578329 0.00567739 0.00558608 0.00550914 0.00544642 0.00539778 0.00536311 0.00534234 0.00533542 
0.00405665 0.00406174 0.00407704 0.00410258 0.00413843 0.00418467 0.00424141 0.0043088 0.00438702 0.00447625 0.00457674 0.00468876 0.00481259 0.0049486 0.00509715 0.0052587 0.00543371 0.00562272 0.00582632 0.00604515 0.00627987 0.00653114 0.00679947 0.00708501 0.00738709 0.00770349 0.00802955 0.00835697 0.00867203 0.00896354 0.0092714 0.00953342 0.00980415 0.0101151 0.0104787 0.0108273 0.0111584 0.0115063 0.0118688 0.012256 0.012656 0.0130586 0.013455 0.0138353 0.014196 0.0145339 0.0148684 0.0151934 0.0155439 0.0159212 0.016225 0.0164695 0.0166935 0.0168738 0.0169986 0.0170665 0.0170805 0.0170691 0.0169549 0.0167508 0.0164752 0.0161068 0.0157046 0.0152691 0.0147671 0.0143082 0.0138871 0.0135037 0.0131824 0.0128747 0.0124919 0.0120554 0.0116209 0.0111927 0.0107677 0.0103459 0.00993322 0.00953483 0.00915402 0.00879255 0.00845122 0.00813026 0.00782953 0.00754867 0.00728722 0.00704465 0.00682043 0.00661402 0.00642491 0.00625262 0.00609671 0.00595679 0.00583251 0.00572355 0.00562965 0.00555057 0.00548613 0.00543616 0.00540056 0.00537923 0.00537213 
0.00407722 0.00408239 0.00409792 0.00412385 0.00416023 0.00420717 0.00426478 0.00433321 0.00441263 0.00450325 0.00460531 0.00471908 0.00484488 0.00498306 0.00513402 0.00529822 0.00547617 0.00566844 0.00587569 0.00609866 0.00633817 0.00659517 0.00687055 0.00716503 0.00747852 0.0078091 0.00815138 0.00849407 0.00880446 0.00910477 0.0093872 0.00964925 0.00994794 0.0102956 0.0106521 0.0109897 0.0113445 0.011716 0.0121057 0.0125152 0.0129502 0.013391 0.0138265 0.0142467 0.0146433 0.0150085 0.0154088 0.0157946 0.0162412 0.0166491 0.0169946 0.0172706 0.0175371 0.0177466 0.0178854 0.0179491 0.0179367 0.0178608 0.0177106 0.0174754 0.0171705 0.0168267 0.0163667 0.0158924 0.0153876 0.0148892 0.0144201 0.0139796 0.0135916 0.013261 0.0128932 0.012473 0.0119893 0.0115299 0.011076 0.0106197 0.010175 0.009749 0.00934465 0.00896295 0.0086041 0.00826782 0.00795364 0.00766092 0.00738898 0.00713714 0.00690471 0.00669103 0.0064955 0.00631755 0.00615667 0.00601241 0.00588437 0.00577219 0.00567556 0.00559422 0.00552796 0.00547661 0.00544002 0.00541811 0.00541081 
0.00409882 0.00410408 0.00411985 0.00414619 0.00418314 0.00423082 0.00428934 0.00435885 0.00443954 0.0045316 0.0046353 0.00475091 0.00487875 0.00501919 0.00517264 0.00533958 0.00552053 0.00571611 0.00592704 0.00615416 0.00639847 0.00666124 0.00694396 0.00724833 0.00757588 0.00792666 0.00829716 0.00862634 0.00890851 0.00921951 0.00950093 0.00977264 0.0100814 0.0104229 0.0107879 0.0111576 0.01154 0.0119398 0.0123608 0.0128029 0.0132796 0.0137644 0.0142433 0.0147099 0.0151574 0.0155943 0.0160316 0.0164643 0.0169197 0.0173633 0.0177722 0.018153 0.0184869 0.0187391 0.0189006 0.0189665 0.018938 0.0188261 0.0186322 0.0183493 0.017988 0.0175627 0.0170975 0.0165859 0.0160449 0.0155032 0.0149809 0.0144836 0.0140221 0.0135969 0.0131878 0.0128143 0.0123681 0.0118954 0.0114195 0.0109141 0.01043 0.00997296 0.00954327 0.00914025 0.00876308 0.00841089 0.00808274 0.00777772 0.00749492 0.00723346 0.00699251 0.00677129 0.00656909 0.00638526 0.00621921 0.00607044 0.00593848 0.00582294 0.00572346 0.00563977 0.00557162 0.00551881 0.00548119 0.00545867 0.00545117 
0.00412135 0.00412669 0.00414272 0.00416947 0.00420703 0.00425548 0.00431495 0.00438559 0.00446759 0.00456116 0.00466656 0.00478407 0.00491402 0.00505679 0.00521279 0.00538252 0.00556651 0.00576541 0.00597996 0.00621108 0.00645991 0.00672795 0.00701729 0.00733088 0.00767298 0.00804777 0.00839472 0.0086852 0.00898843 0.00931396 0.00959469 0.00989256 0.0102179 0.01057 0.0109429 0.0113345 0.0117461 0.0121744 0.0126272 0.0131189 0.0136385 0.0141668 0.0146934 0.0152131 0.0157262 0.0162435 0.0167068 0.0171993 0.0177073 0.0182114 0.0186955 0.0191506 0.0195599 0.0198691 0.0200652 0.0201398 0.0201013 0.0199629 0.0197198 0.0193806 0.0189534 0.0184554 0.0179281 0.0173518 0.0167482 0.0161489 0.0155668 0.0150055 0.0144764 0.0139789 0.0135081 0.0130677 0.012652 0.0122011 0.0117404 0.0112199 0.0106903 0.0102014 0.00974633 0.00932188 0.00892622 0.00855788 0.00821554 0.00789799 0.00760409 0.00733279 0.00708311 0.00685415 0.00664509 0.00645521 0.00628385 0.00613042 0.00599443 0.00587541 0.005773 0.00568688 0.00561677 0.00556245 0.00552378 0.00550062 0.00549291 
0.00414466 0.00415009 0.00416638 0.00419357 0.00423175 0.004281 0.00434145 0.00441326 0.00449662 0.00459175 0.00469891 0.00481838 0.0049505 0.00509566 0.00525427 0.00542682 0.00561386 0.00581604 0.0060341 0.00626896 0.00652178 0.00679409 0.00708808 0.00740743 0.00776026 0.00811186 0.00843394 0.00874603 0.00906077 0.00938163 0.00969275 0.0100157 0.01036 0.0107263 0.0111093 0.0115247 0.0119695 0.0124313 0.0129227 0.0134459 0.0140061 0.0145884 0.0151673 0.0157397 0.0163109 0.016867 0.0174337 0.0180099 0.0185954 0.0191789 0.0197487 0.0202911 0.0207914 0.0211726 0.0214099 0.0215014 0.0214483 0.0212733 0.0209816 0.0205802 0.0200756 0.0194862 0.0188573 0.0181881 0.0174989 0.0168377 0.0161862 0.0155577 0.0149577 0.0143936 0.0138646 0.0133818 0.0129216 0.0124594 0.012007 0.0114967 0.010943 0.0104288 0.00995047 0.00950545 0.00909164 0.00870727 0.00835074 0.0080206 0.00771552 0.00743427 0.00717575 0.00693893 0.00672291 0.00652687 0.00635008 0.0061919 0.00605178 0.00592922 0.0058238 0.00573518 0.00566307 0.00560721 0.00556745 0.00554364 0.00553571 
0.00416862 0.00417413 0.00419069 0.00421835 0.00425716 0.00430723 0.0043687 0.00444172 0.00452648 0.00462321 0.00473218 0.00485367 0.00498802 0.00513561 0.00529687 0.00547227 0.00566237 0.00586779 0.00608925 0.00632759 0.00658386 0.00685928 0.00715528 0.00747312 0.00781201 0.00815974 0.0085077 0.0088206 0.00914309 0.00947064 0.00980021 0.0101469 0.0105117 0.0108972 0.0113027 0.0117397 0.0122185 0.0127246 0.013253 0.0138065 0.0143818 0.0150235 0.0156684 0.0162907 0.0169354 0.0175882 0.0182413 0.0189074 0.0195871 0.0202644 0.0209326 0.0216091 0.0222012 0.0226576 0.022953 0.0230745 0.0230157 0.022784 0.0224402 0.0219664 0.0213674 0.0206595 0.0198969 0.0191321 0.0183596 0.0176027 0.0168615 0.0161426 0.0154629 0.0148294 0.0142485 0.0137256 0.0132266 0.0127446 0.0122847 0.011766 0.0111907 0.0106538 0.0101539 0.00968919 0.00925776 0.00885766 0.00848712 0.00814449 0.00782826 0.00753707 0.00726967 0.00702496 0.00680192 0.00659965 0.00641738 0.0062544 0.00611009 0.00598393 0.00587547 0.00578432 0.00571016 0.00565274 0.00561187 0.0055874 0.00557925 