<?xml version="1.0"?>
<VTKFile type="StructuredGrid" version="0.1">
    <StructuredGrid WholeExtent="0 100 0 100 0 0">
        <Piece Extent="0 100 0 100 0 0">
            <Points>
                <DataArray type="Float64" NumberOfComponents="3" format="ascii">
-15 -15 0
-15 -14.7 0
-15 -14.4 0
-15 -14.1 0
-15 -13.8 0
-15 -13.5 0
-15 -13.2 0
-15 -12.9 0
-15 -12.6 0
-15 -12.3 0
-15 -12 0
-15 -11.7 0
-15 -11.4 0
-15 -11.1 0
-15 -10.8 0
-15 -10.5 0
-15 -10.2 0
-15 -9.9 0
-15 -9.6 0
-15 -9.3 0
-15 -9 0
-15 -8.7 0
-15 -8.4 0
-15 -8.1 0
-15 -7.8 0
-15 -7.5 0
-15 -7.2 0
-15 -6.9 0
-15 -6.6 0
-15 -6.3 0
-15 -6 0
-15 -5.7 0
-15 -5.4 0
-15 -5.1 0
-15 -4.8 0
-15 -4.5 0
-15 -4.2 0
-15 -3.9 0
-15 -3.6 0
-15 -3.3 0
-15 -3 0
-15 -2.7 0
-15 -2.4 0
-15 -2.1 0
-15 -1.8 0
-15 -1.5 0
-15 -1.2 0
-15 -0.9 0
-15 -0.6 0
-15 -0.3 0
-15 0 0
-15 0.3 0
-15 0.6 0
-15 0.9 0
-15 1.2 0
-15 1.5 0
-15 1.8 0
-15 2.1 0
-15 2.4 0
-15 2.7 0
-15 3 0
-15 3.3 0
-15 3.6 0
-15 3.9 0
-15 4.2 0
-15 4.5 0
-15 4.8 0
-15 5.1 0
-15 5.4 0
-15 5.7 0
-15 6 0
-15 6.3 0
-15 6.6 0
-15 6.9 0
-15 7.2 0
-15 7.5 0
-15 7.8 0
-15 8.1 0
-15 8.4 0
-15 8.7 0
-15 9 0
-15 9.3 0
-15 9.6 0
-15 9.9 0
-15 10.2 0
-15 10.5 0
-15 10.8 0
-15 11.1 0
-15 11.4 0
-15 11.7 0
-15 12 0
-15 12.3 0
-15 12.6 0
-15 12.9 0
-15 13.2 0
-15 13.5 0
-15 13.8 0
-15 14.1 0
-15 14.4 0
-15 14.7 0
-15 15 0
-14.7 -15 0
-14.7 -14.7 0
-14.7 -14.4 0
-14.7 -14.1 0
-14.7 -13.8 0
-14.7 -13.5 0
-14.7 -13.2 0
-14.7 -12.9 0
-14.7 -12.6 0
-14.7 -12.3 0
-14.7 -12 0
-14.7 -11.7 0
-14.7 -11.4 0
-14.7 -11.1 0
-14.7 -10.8 0
-14.7 -10.5 0
-14.7 -10.2 0
-14.7 -9.9 0
-14.7 -9.6 0
-14.7 -9.3 0
-14.7 -9 0
-14.7 -8.7 0
-14.7 -8.4 0
-14.7 -8.1 0
-14.7 -7.8 0
-14.7 -7.5 0
-14.7 -7.2 0
-14.7 -6.9 0
-14.7 -6.6 0
-14.7 -6.3 0
-14.7 -6 0
-14.7 -5.7 0
-14.7 -5.4 0
-14.7 -5.1 0
-14.7 -4.8 0
-14.7 -4.5 0
-14.7 -4.2 0
-14.7 -3.9 0
-14.7 -3.6 0
-14.7 -3.3 0
-14.7 -3 0
-14.7 -2.7 0
-14.7 -2.4 0
-14.7 -2.1 0
-14.7 -1.8 0
-14.7 -1.5 0
-14.7 -1.2 0
-14.7 -0.9 0
-14.7 -0.6 0
-14.7 -0.3 0
-14.7 0 0
-14.7 0.3 0
-14.7 0.6 0
-14.7 0.9 0
-14.7 1.2 0
-14.7 1.5 0
-14.7 1.8 0
-14.7 2.1 0
-14.7 2.4 0
-14.7 2.7 0
-14.7 3 0
-14.7 3.3 0
-14.7 3.6 0
-14.7 3.9 0
-14.7 4.2 0
-14.7 4.5 0
-14.7 4.8 0
-14.7 5.1 0
-14.7 5.4 0
-14.7 5.7 0
-14.7 6 0
-14.7 6.3 0
-14.7 6.6 0
-14.7 6.9 0
-14.7 7.2 0
-14.7 7.5 0
-14.7 7.8 0
-14.7 8.1 0
-14.7 8.4 0
-14.7 8.7 0
-14.7 9 0
-14.7 9.3 0
-14.7 9.6 0
-14.7 9.9 0
-14.7 10.2 0
-14.7 10.5 0
-14.7 10.8 0
-14.7 11.1 0
-14.7 11.4 0
-14.7 11.7 0
-14.7 12 0
-14.7 12.3 0
-14.7 12.6 0
-14.7 12.9 0
-14.7 13.2 0
-14.7 13.5 0
-14.7 13.8 0
-14.7 14.1 0
-14.7 14.4 0
-14.7 14.7 0
-14.7 15 0
-14.4 -15 0
-14.4 -14.7 0
-14.4 -14.4 0
-14.4 -14.1 0
-14.4 -13.8 0
-14.4 -13.5 0
-14.4 -13.2 0
-14.4 -12.9 0
-14.4 -12.6 0
-14.4 -12.3 0
-14.4 -12 0
-14.4 -11.7 0
-14.4 -11.4 0
-14.4 -11.1 0
-14.4 -10.8 0
-14.4 -10.5 0
-14.4 -10.2 0
-14.4 -9.9 0
-14.4 -9.6 0
-14.4 -9.3 0
-14.4 -9 0
-14.4 -8.7 0
-14.4 -8.4 0
-14.4 -8.1 0
-14.4 -7.8 0
-14.4 -7.5 0
-14.4 -7.2 0
-14.4 -6.9 0
-14.4 -6.6 0
-14.4 -6.3 0
-14.4 -6 0
-14.4 -5.7 0
-14.4 -5.4 0
-14.4 -5.1 0
-14.4 -4.8 0
-14.4 -4.5 0
-14.4 -4.2 0
-14.4 -3.9 0
-14.4 -3.6 0
-14.4 -3.3 0
-14.4 -3 0
-14.4 -2.7 0
-14.4 -2.4 0
-14.4 -2.1 0
-14.4 -1.8 0
-14.4 -1.5 0
-14.4 -1.2 0
-14.4 -0.9 0
-14.4 -0.6 0
-14.4 -0.3 0
-14.4 0 0
-14.4 0.3 0
-14.4 0.6 0
-14.4 0.9 0
-14.4 1.2 0
-14.4 1.5 0
-14.4 1.8 0
-14.4 2.1 0
-14.4 2.4 0
-14.4 2.7 0
-14.4 3 0
-14.4 3.3 0
-14.4 3.6 0
-14.4 3.9 0
-14.4 4.2 0
-14.4 4.5 0
-14.4 4.8 0
-14.4 5.1 0
-14.4 5.4 0
-14.4 5.7 0
-14.4 6 0
-14.4 6.3 0
-14.4 6.6 0
-14.4 6.9 0
-14.4 7.2 0
-14.4 7.5 0
-14.4 7.8 0
-14.4 8.1 0
-14.4 8.4 0
-14.4 8.7 0
-14.4 9 0
-14.4 9.3 0
-14.4 9.6 0
-14.4 9.9 0
-14.4 10.2 0
-14.4 10.5 0
-14.4 10.8 0
-14.4 11.1 0
-14.4 11.4 0
-14.4 11.7 0
-14.4 12 0
-14.4 12.3 0
-14.4 12.6 0
-14.4 12.9 0
-14.4 13.2 0
-14.4 13.5 0
-14.4 13.8 0
-14.4 14.1 0
-14.4 14.4 0
-14.4 14.7 0
-14.4 15 0
-14.1 -15 0
-14.1 -14.7 0
-14.1 -14.4 0
-14.1 -14.1 0
-14.1 -13.8 0
-14.1 -13.5 0
-14.1 -13.2 0
-14.1 -12.9 0
-14.1 -12.6 0
-14.1 -12.3 0
-14.1 -12 0
-14.1 -11.7 0
-14.1 -11.4 0
-14.1 -11.1 0
-14.1 -10.8 0
-14.1 -10.5 0
-14.1 -10.2 0
-14.1 -9.9 0
-14.1 -9.6 0
-14.1 -9.3 0
-14.1 -9 0
-14.1 -8.7 0
-14.1 -8.4 0
-14.1 -8.1 0
-14.1 -7.8 0
-14.1 -7.5 0
-14.1 -7.2 0
-14.1 -6.9 0
-14.1 -6.6 0
-14.1 -6.3 0
-14.1 -6 0
-14.1 -5.7 0
-14.1 -5.4 0
-14.1 -5.1 0
-14.1 -4.8 0
-14.1 -4.5 0
-14.1 -4.2 0
-14.1 -3.9 0
-14.1 -3.6 0
-14.1 -3.3 0
-14.1 -3 0
-14.1 -2.7 0
-14.1 -2.4 0
-14.1 -2.1 0
-14.1 -1.8 0
-14.1 -1.5 0
-14.1 -1.2 0
-14.1 -0.9 0
-14.1 -0.6 0
-14.1 -0.3 0
-14.1 0 0
-14.1 0.3 0
-14.1 0.6 0
-14.1 0.9 0
-14.1 1.2 0
-14.1 1.5 0
-14.1 1.8 0
-14.1 2.1 0
-14.1 2.4 0
-14.1 2.7 0
-14.1 3 0
-14.1 3.3 0
-14.1 3.6 0
-14.1 3.9 0
-14.1 4.2 0
-14.1 4.5 0
-14.1 4.8 0
-14.1 5.1 0
-14.1 5.4 0
-14.1 5.7 0
-14.1 6 0
-14.1 6.3 0
-14.1 6.6 0
-14.1 6.9 0
-14.1 7.2 0
-14.1 7.5 0
-14.1 7.8 0
-14.1 8.1 0
-14.1 8.4 0
-14.1 8.7 0
-14.1 9 0
-14.1 9.3 0
-14.1 9.6 0
-14.1 9.9 0
-14.1 10.2 0
-14.1 10.5 0
-14.1 10.8 0
-14.1 11.1 0
-14.1 11.4 0
-14.1 11.7 0
-14.1 12 0
-14.1 12.3 0
-14.1 12.6 0
-14.1 12.9 0
-14.1 13.2 0
-14.1 13.5 0
-14.1 13.8 0
-14.1 14.1 0
-14.1 14.4 0
-14.1 14.7 0
-14.1 15 0
-13.8 -15 0
-13.8 -14.7 0
-13.8 -14.4 0
-13.8 -14.1 0
-13.8 -13.8 0
-13.8 -13.5 0
-13.8 -13.2 0
-13.8 -12.9 0
-13.8 -12.6 0
-13.8 -12.3 0
-13.8 -12 0
-13.8 -11.7 0
-13.8 -11.4 0
-13.8 -11.1 0
-13.8 -10.8 0
-13.8 -10.5 0
-13.8 -10.2 0
-13.8 -9.9 0
-13.8 -9.6 0
-13.8 -9.3 0
-13.8 -9 0
-13.8 -8.7 0
-13.8 -8.4 0
-13.8 -8.1 0
-13.8 -7.8 0
-13.8 -7.5 0
-13.8 -7.2 0
-13.8 -6.9 0
-13.8 -6.6 0
-13.8 -6.3 0
-13.8 -6 0
-13.8 -5.7 0
-13.8 -5.4 0
-13.8 -5.1 0
-13.8 -4.8 0
-13.8 -4.5 0
-13.8 -4.2 0
-13.8 -3.9 0
-13.8 -3.6 0
-13.8 -3.3 0
-13.8 -3 0
-13.8 -2.7 0
-13.8 -2.4 0
-13.8 -2.1 0
-13.8 -1.8 0
-13.8 -1.5 0
-13.8 -1.2 0
-13.8 -0.9 0
-13.8 -0.6 0
-13.8 -0.3 0
-13.8 0 0
-13.8 0.3 0
-13.8 0.6 0
-13.8 0.9 0
-13.8 1.2 0
-13.8 1.5 0
-13.8 1.8 0
-13.8 2.1 0
-13.8 2.4 0
-13.8 2.7 0
-13.8 3 0
-13.8 3.3 0
-13.8 3.6 0
-13.8 3.9 0
-13.8 4.2 0
-13.8 4.5 0
-13.8 4.8 0
-13.8 5.1 0
-13.8 5.4 0
-13.8 5.7 0
-13.8 6 0
-13.8 6.3 0
-13.8 6.6 0
-13.8 6.9 0
-13.8 7.2 0
-13.8 7.5 0
-13.8 7.8 0
-13.8 8.1 0
-13.8 8.4 0
-13.8 8.7 0
-13.8 9 0
-13.8 9.3 0
-13.8 9.6 0
-13.8 9.9 0
-13.8 10.2 0
-13.8 10.5 0
-13.8 10.8 0
-13.8 11.1 0
-13.8 11.4 0
-13.8 11.7 0
-13.8 12 0
-13.8 12.3 0
-13.8 12.6 0
-13.8 12.9 0
-13.8 13.2 0
-13.8 13.5 0
-13.8 13.8 0
-13.8 14.1 0
-13.8 14.4 0
-13.8 14.7 0
-13.8 15 0
-13.5 -15 0
-13.5 -14.7 0
-13.5 -14.4 0
-13.5 -14.1 0
-13.5 -13.8 0
-13.5 -13.5 0
-13.5 -13.2 0
-13.5 -12.9 0
-13.5 -12.6 0
-13.5 -12.3 0
-13.5 -12 0
-13.5 -11.7 0
-13.5 -11.4 0
-13.5 -11.1 0
-13.5 -10.8 0
-13.5 -10.5 0
-13.5 -10.2 0
-13.5 -9.9 0
-13.5 -9.6 0
-13.5 -9.3 0
-13.5 -9 0
-13.5 -8.7 0
-13.5 -8.4 0
-13.5 -8.1 0
-13.5 -7.8 0
-13.5 -7.5 0
-13.5 -7.2 0
-13.5 -6.9 0
-13.5 -6.6 0
-13.5 -6.3 0
-13.5 -6 0
-13.5 -5.7 0
-13.5 -5.4 0
-13.5 -5.1 0
-13.5 -4.8 0
-13.5 -4.5 0
-13.5 -4.2 0
-13.5 -3.9 0
-13.5 -3.6 0
-13.5 -3.3 0
-13.5 -3 0
-13.5 -2.7 0
-13.5 -2.4 0
-13.5 -2.1 0
-13.5 -1.8 0
-13.5 -1.5 0
-13.5 -1.2 0
-13.5 -0.9 0
-13.5 -0.6 0
-13.5 -0.3 0
-13.5 0 0
-13.5 0.3 0
-13.5 0.6 0
-13.5 0.9 0
-13.5 1.2 0
-13.5 1.5 0
-13.5 1.8 0
-13.5 2.1 0
-13.5 2.4 0
-13.5 2.7 0
-13.5 3 0
-13.5 3.3 0
-13.5 3.6 0
-13.5 3.9 0
-13.5 4.2 0
-13.5 4.5 0
-13.5 4.8 0
-13.5 5.1 0
-13.5 5.4 0
-13.5 5.7 0
-13.5 6 0
-13.5 6.3 0
-13.5 6.6 0
-13.5 6.9 0
-13.5 7.2 0
-13.5 7.5 0
-13.5 7.8 0
-13.5 8.1 0
-13.5 8.4 0
-13.5 8.7 0
-13.5 9 0
-13.5 9.3 0
-13.5 9.6 0
-13.5 9.9 0
-13.5 10.2 0
-13.5 10.5 0
-13.5 10.8 0
-13.5 11.1 0
-13.5 11.4 0
-13.5 11.7 0
-13.5 12 0
-13.5 12.3 0
-13.5 12.6 0
-13.5 12.9 0
-13.5 13.2 0
-13.5 13.5 0
-13.5 13.8 0
-13.5 14.1 0
-13.5 14.4 0
-13.5 14.7 0
-13.5 15 0
-13.2 -15 0
-13.2 -14.7 0
-13.2 -14.4 0
-13.2 -14.1 0
-13.2 -13.8 0
-13.2 -13.5 0
-13.2 -13.2 0
-13.2 -12.9 0
-13.2 -12.6 0
-13.2 -12.3 0
-13.2 -12 0
-13.2 -11.7 0
-13.2 -11.4 0
-13.2 -11.1 0
-13.2 -10.8 0
-13.2 -10.5 0
-13.2 -10.2 0
-13.2 -9.9 0
-13.2 -9.6 0
-13.2 -9.3 0
-13.2 -9 0
-13.2 -8.7 0
-13.2 -8.4 0
-13.2 -8.1 0
-13.2 -7.8 0
-13.2 -7.5 0
-13.2 -7.2 0
-13.2 -6.9 0
-13.2 -6.6 0
-13.2 -6.3 0
-13.2 -6 0
-13.2 -5.7 0
-13.2 -5.4 0
-13.2 -5.1 0
-13.2 -4.8 0
-13.2 -4.5 0
-13.2 -4.2 0
-13.2 -3.9 0
-13.2 -3.6 0
-13.2 -3.3 0
-13.2 -3 0
-13.2 -2.7 0
-13.2 -2.4 0
-13.2 -2.1 0
-13.2 -1.8 0
-13.2 -1.5 0
-13.2 -1.2 0
-13.2 -0.9 0
-13.2 -0.6 0
-13.2 -0.3 0
-13.2 0 0
-13.2 0.3 0
-13.2 0.6 0
-13.2 0.9 0
-13.2 1.2 0
-13.2 1.5 0
-13.2 1.8 0
-13.2 2.1 0
-13.2 2.4 0
-13.2 2.7 0
-13.2 3 0
-13.2 3.3 0
-13.2 3.6 0
-13.2 3.9 0
-13.2 4.2 0
-13.2 4.5 0
-13.2 4.8 0
-13.2 5.1 0
-13.2 5.4 0
-13.2 5.7 0
-13.2 6 0
-13.2 6.3 0
-13.2 6.6 0
-13.2 6.9 0
-13.2 7.2 0
-13.2 7.5 0
-13.2 7.8 0
-13.2 8.1 0
-13.2 8.4 0
-13.2 8.7 0
-13.2 9 0
-13.2 9.3 0
-13.2 9.6 0
-13.2 9.9 0
-13.2 10.2 0
-13.2 10.5 0
-13.2 10.8 0
-13.2 11.1 0
-13.2 11.4 0
-13.2 11.7 0
-13.2 12 0
-13.2 12.3 0
-13.2 12.6 0
-13.2 12.9 0
-13.2 13.2 0
-13.2 13.5 0
-13.2 13.8 0
-13.2 14.1 0
-13.2 14.4 0
-13.2 14.7 0
-13.2 15 0
-12.9 -15 0
-12.9 -14.7 0
-12.9 -14.4 0
-12.9 -14.1 0
-12.9 -13.8 0
-12.9 -13.5 0
-12.9 -13.2 0
-12.9 -12.9 0
-12.9 -12.6 0
-12.9 -12.3 0
-12.9 -12 0
-12.9 -11.7 0
-12.9 -11.4 0
-12.9 -11.1 0
-12.9 -10.8 0
-12.9 -10.5 0
-12.9 -10.2 0
-12.9 -9.9 0
-12.9 -9.6 0
-12.9 -9.3 0
-12.9 -9 0
-12.9 -8.7 0
-12.9 -8.4 0
-12.9 -8.1 0
-12.9 -7.8 0
-12.9 -7.5 0
-12.9 -7.2 0
-12.9 -6.9 0
-12.9 -6.6 0
-12.9 -6.3 0
-12.9 -6 0
-12.9 -5.7 0
-12.9 -5.4 0
-12.9 -5.1 0
-12.9 -4.8 0
-12.9 -4.5 0
-12.9 -4.2 0
-12.9 -3.9 0
-12.9 -3.6 0
-12.9 -3.3 0
-12.9 -3 0
-12.9 -2.7 0
-12.9 -2.4 0
-12.9 -2.1 0
-12.9 -1.8 0
-12.9 -1.5 0
-12.9 -1.2 0
-12.9 -0.9 0
-12.9 -0.6 0
-12.9 -0.3 0
-12.9 0 0
-12.9 0.3 0
-12.9 0.6 0
-12.9 0.9 0
-12.9 1.2 0
-12.9 1.5 0
-12.9 1.8 0
-12.9 2.1 0
-12.9 2.4 0
-12.9 2.7 0
-12.9 3 0
-12.9 3.3 0
-12.9 3.6 0
-12.9 3.9 0
-12.9 4.2 0
-12.9 4.5 0
-12.9 4.8 0
-12.9 5.1 0
-12.9 5.4 0
-12.9 5.7 0
-12.9 6 0
-12.9 6.3 0
-12.9 6.6 0
-12.9 6.9 0
-12.9 7.2 0
-12.9 7.5 0
-12.9 7.8 0
-12.9 8.1 0
-12.9 8.4 0
-12.9 8.7 0
-12.9 9 0
[...]
            <PointData>
                <DataArray type="Float64" Name="c1" format="ascii">
0.000714434 0.000715304 0.000717915 0.000722263 0.000728346 0.000736159 0.000745695 0.000756947 0.000769903 0.000784553 0.00080088 0.000818867 0.000838493 0.000859733 0.000882558 0.000906936 0.000932828 0.000960191 0.000988976 0.00101913 0.00105058 0.00108327 0.00111712 0.00115204 0.00118794 0.00122472 0.00126226 0.00130046 0.00133917 0.00137826 0.0014176 0.00145701 0.00149635 0.00153545 0.00157412 0.0016122 0.00164949 0.0016858 0.00172096 0.00175478 0.00178705 0.00181761 0.00184628 0.00187288 0.00189725 0.00191925 0.00193872 0.00195556 0.00196965 0.00198089 0.00198923 0.0019946 0.00199697 0.00199633 0.00199268 0.00198606 0.00197652 0.00196412 0.00194896 0.00193114 0.00191078 0.00188802 0.00186301 0.00183592 0.00180691 0.00177617 0.00174389 0.00171026 0.00167547 0.00163972 0.0016032 0.0015661 0.00152862 0.00149093 0.00145322 0.00141566 0.00137841 0.00134164 0.00130548 0.00127008 0.00123558 0.00120209 0.00116972 0.00113859 0.00110879 0.00108041 0.00105353 0.00102823 0.00100456 0.000982585 0.000962364 0.000943939 0.000927352 0.000912638 0.000899827 0.000888945 0.000880014 0.00087305 0.000868066 0.000865072 0.000864074 
0.000715177 0.00071605 0.000718668 0.000723028 0.000729129 0.000736964 0.000746527 0.000757812 0.000770807 0.000785499 0.000801876 0.000819918 0.000839604 0.000860911 0.000883809 0.000908266 0.000934244 0.000961699 0.000990583 0.00102084 0.00105241 0.00108522 0.00111919 0.00115424 0.00119028 0.00122721 0.00126491 0.00130326 0.00134214 0.0013814 0.00142091 0.00146051 0.00150003 0.00153931 0.00157817 0.00161643 0.0016539 0.0016904 0.00172575 0.00175973 0.00179218 0.00182291 0.00185173 0.00187848 0.00190299 0.0019251 0.00194469 0.00196162 0.00197579 0.0019871 0.00199548 0.00200088 0.00200326 0.00200262 0.00199895 0.00199229 0.00198269 0.00197022 0.00195497 0.00193704 0.00191657 0.00189368 0.00186853 0.00184128 0.00181212 0.00178121 0.00174876 0.00171495 0.00167998 0.00164404 0.00160733 0.00157005 0.00153238 0.00149452 0.00145663 0.0014189 0.00138148 0.00134454 0.00130823 0.00127268 0.00123803 0.0012044 0.0011719 0.00114065 0.00111073 0.00108225 0.00105526 0.00102986 0.00100611 0.000984055 0.000963762 0.000945273 0.000928628 0.000913863 0.000901008 0.00089009 0.000881128 0.000874141 0.000869141 0.000866137 0.000865135 
0.000717406 0.000718286 0.000720926 0.000725323 0.000731475 0.000739378 0.000749024 0.000760406 0.000773515 0.000788338 0.000804862 0.000823068 0.000842937 0.000864444 0.000887561 0.000912255 0.00093849 0.000966223 0.000995404 0.00102598 0.00105788 0.00109105 0.00112541 0.00116086 0.00119732 0.00123469 0.00127285 0.00131168 0.00135105 0.00139083 0.00143086 0.00147099 0.00151106 0.0015509 0.00159032 0.00162914 0.00166717 0.00170423 0.00174012 0.00177464 0.0018076 0.00183882 0.00186812 0.00189531 0.00192022 0.00194271 0.00196263 0.00197985 0.00199426 0.00200577 0.00201429 0.00201978 0.0020222 0.00202154 0.0020178 0.00201102 0.00200125 0.00198856 0.00197304 0.0019548 0.00193397 0.00191069 0.00188511 0.00185741 0.00182776 0.00179635 0.00176338 0.00172903 0.00169351 0.00165702 0.00161976 0.00158192 0.00154371 0.00150529 0.00146687 0.00142862 0.00139069 0.00135326 0.00131647 0.00128047 0.00124538 0.00121134 0.00117845 0.00114682 0.00111656 0.00108774 0.00106046 0.00103477 0.00101075 0.000988466 0.000967956 0.000949272 0.000932454 0.000917537 0.000904551 0.000893522 0.000884471 0.000877413 0.000872364 0.00086933 0.000868318 
0.000721115 0.000722008 0.000724684 0.000729143 0.000735382 0.000743396 0.00075318 0.000764726 0.000778025 0.000793066 0.000809835 0.000828316 0.000848489 0.00087033 0.000893812 0.000918904 0.000945568 0.000973764 0.00100344 0.00103455 0.00106702 0.00110079 0.00113578 0.0011719 0.00120907 0.00124717 0.0012861 0.00132573 0.00136593 0.00140657 0.00144748 0.00148852 0.0015295 0.00157027 0.00161063 0.00165039 0.00168936 0.00172735 0.00176415 0.00179957 0.0018334 0.00186545 0.00189554 0.00192347 0.00194907 0.00197218 0.00199266 0.00201037 0.00202518 0.00203702 0.00204578 0.00205142 0.00205391 0.00205322 0.00204937 0.00204239 0.00203233 0.00201926 0.00200329 0.00198452 0.0019631 0.00193916 0.00191287 0.0018844 0.00185394 0.00182168 0.00178783 0.00175258 0.00171614 0.00167872 0.00164053 0.00160176 0.00156262 0.0015233 0.00148398 0.00144485 0.00140608 0.00136782 0.00133024 0.00129347 0.00125765 0.00122291 0.00118937 0.00115712 0.00112627 0.00109691 0.00106911 0.00104295 0.0010185 0.000995814 0.000974943 0.000955934 0.000938827 0.000923656 0.000910452 0.000899238 0.000890036 0.000882862 0.000877729 0.000874646 0.000873617 
0.000726298 0.000727207 0.000729935 0.000734481 0.000740841 0.000749012 0.000758988 0.000770764 0.00078433 0.000799676 0.00081679 0.000835656 0.000856255 0.000878565 0.00090256 0.00092821 0.000955478 0.000984323 0.0010147 0.00104655 0.00107982 0.00111443 0.00115032 0.00118739 0.00122554 0.00126469 0.0013047 0.00134546 0.00138683 0.00142868 0.00147083 0.00151314 0.00155542 0.0015975 0.00163918 0.00168028 0.00172058 0.00175988 0.00179798 0.00183467 0.00186973 0.00190296 0.00193416 0.00196314 0.00198972 0.00201372 0.00203498 0.00205338 0.00206877 0.00208106 0.00209017 0.00209603 0.00209861 0.00209788 0.00209387 0.0020866 0.00207613 0.00206253 0.00204592 0.00202641 0.00200414 0.00197926 0.00195196 0.0019224 0.0018908 0.00185734 0.00182224 0.00178572 0.00174798 0.00170925 0.00166974 0.00162965 0.00158921 0.0015486 0.00150802 0.00146765 0.00142767 0.00138826 0.00134955 0.00131171 0.00127486 0.00123915 0.00120467 0.00117155 0.00113988 0.00110974 0.00108123 0.00105441 0.00102935 0.0010061 0.000984721 0.000965255 0.000947742 0.000932214 0.000918702 0.000907229 0.000897816 0.000890478 0.000885229 0.000882075 0.000881024 
0.000732942 0.000733874 0.000736668 0.000741325 0.000747841 0.000756214 0.000766439 0.00077851 0.00079242 0.00080816 0.000825718 0.000845081 0.00086623 0.000889145 0.000913802 0.000940171 0.000968219 0.000997904 0.00102918 0.001062 0.0010963 0.001132 0.00116905 0.00120734 0.00124678 0.00128727 0.00132869 0.00137091 0.00141381 0.00145722 0.00150099 0.00154494 0.00158891 0.0016327 0.00167611 0.00171894 0.00176097 0.00180199 0.00184178 0.00188012 0.00191678 0.00195155 0.00198421 0.00201457 0.00204241 0.00206757 0.00208988 0.00210917 0.00212532 0.00213822 0.00214777 0.00215391 0.00215661 0.00215583 0.00215161 0.00214396 0.00213295 0.00211867 0.00210122 0.00208073 0.00205735 0.00203126 0.00200262 0.00197165 0.00193854 0.00190352 0.0018668 0.00182861 0.00178918 0.00174873 0.00170751 0.00166571 0.00162357 0.00158128 0.00153906 0.00149708 0.00145555 0.00141462 0.00137446 0.00133522 0.00129705 0.00126006 0.00122438 0.00119013 0.00115739 0.00112626 0.00109682 0.00106914 0.00104328 0.00101932 0.000997282 0.000977227 0.000959189 0.000943202 0.000929292 0.000917485 0.0009078 0.000900251 0.000894851 0.000891607 0.000890525 
0.000741034 0.000741993 0.00074487 0.000749662 0.00075637 0.00076499 0.000775519 0.000787953 0.000802284 0.000818507 0.00083661 0.000856581 0.000878405 0.000902063 0.000927532 0.000954785 0.00098379 0.00101451 0.0010469 0.0010809 0.00111646 0.00115352 0.00119199 0.00123178 0.00127281 0.00131496 0.00135812 0.00140216 0.00144693 0.00149228 0.00153804 0.00158405 0.00163011 0.00167602 0.00172157 0.00176655 0.00181074 0.00185389 0.00189578 0.00193617 0.00197483 0.00201151 0.002046 0.00207806 0.0021075 0.0021341 0.0021577 0.00217811 0.00219521 0.00220886 0.00221897 0.00222547 0.00222831 0.00222748 0.00222298 0.00221486 0.00220318 0.00218803 0.00216953 0.00214783 0.00212308 0.00209546 0.00206517 0.00203242 0.00199745 0.00196047 0.00192173 0.00188147 0.00183993 0.00179736 0.001754 0.00171008 0.00166582 0.00162146 0.0015772 0.00153324 0.00148977 0.00144698 0.00140502 0.00136406 0.00132423 0.00128568 0.00124852 0.00121287 0.00117882 0.00114646 0.00111588 0.00108714 0.00106032 0.00103546 0.00101262 0.00099184 0.000973158 0.000956606 0.000942209 0.000929992 0.000919972 0.000912164 0.000906579 0.000903225 0.000902106 
0.000750558 0.000751549 0.000754521 0.000759475 0.00076641 0.000775323 0.000786212 0.000799075 0.000813907 0.000830701 0.00084945 0.000870144 0.000892769 0.000917309 0.000943743 0.000972047 0.00100219 0.00103414 0.00106784 0.00110326 0.00114034 0.001179 0.00121917 0.00126076 0.00130368 0.00134782 0.00139306 0.00143926 0.00148628 0.00153396 0.00158213 0.00163059 0.00167916 0.00172762 0.00177575 0.00182333 0.0018701 0.00191582 0.00196025 0.00200313 0.00204419 0.00208319 0.00211988 0.00215402 0.00218537 0.00221373 0.00223888 0.00226066 0.0022789 0.00229346 0.00230425 0.00231118 0.0023142 0.00231329 0.00230847 0.00229978 0.00228728 0.00227109 0.00225132 0.00222814 0.00220172 0.00217225 0.00213996 0.00210507 0.00206783 0.0020285 0.00198731 0.00194455 0.00190048 0.00185534 0.00180941 0.00176293 0.00171614 0.00166928 0.00162257 0.00157622 0.00153044 0.0014854 0.00144129 0.00139827 0.00135647 0.00131605 0.00127712 0.0012398 0.00120418 0.00117036 0.00113841 0.00110842 0.00108044 0.00105452 0.00103072 0.00100908 0.000989635 0.00097241 0.000957435 0.00094473 0.000934313 0.000926197 0.000920393 0.000916908 0.000915745 
0.00076149 0.000762519 0.000765603 0.000770744 0.00077794 0.000787192 0.000798499 0.000811859 0.000827269 0.000844726 0.000864223 0.000885754 0.000909308 0.000934871 0.000962425 0.000991949 0.00102341 0.00105679 0.00109203 0.0011291 0.00116793 0.00120846 0.00125062 0.00129431 0.00133945 0.00138591 0.00143358 0.00148232 0.00153198 0.00158239 0.00163337 0.00168472 0.00173624 0.0017877 0.00183887 0.0018895 0.00193933 0.00198809 0.00203552 0.00208133 0.00212524 0.00216699 0.00220629 0.00224288 0.00227651 0.00230694 0.00233395 0.00235734 0.00237694 0.00239259 0.00240418 0.00241162 0.00241485 0.00241386 0.00240865 0.00239927 0.00238581 0.00236837 0.0023471 0.00232216 0.00229376 0.0022621 0.00222743 0.00219001 0.00215009 0.00210796 0.00206389 0.00201817 0.00197109 0.00192293 0.00187397 0.00182447 0.00177469 0.00172489 0.0016753 0.00162615 0.00157765 0.00152999 0.00148335 0.00143791 0.00139381 0.0013512 0.0013102 0.00127093 0.00123348 0.00119796 0.00116443 0.00113297 0.00110364 0.00107649 0.00105158 0.00102894 0.0010086 0.000990596 0.000974949 0.000961679 0.000950801 0.000942328 0.00093627 0.000932632 0.000931419 
0.000773808 0.000774879 0.00077809 0.000783442 0.000790937 0.000800574 0.000812355 0.00082628 0.000842348 0.000860559 0.000880909 0.000903393 0.000928005 0.000954734 0.000983566 0.00101448 0.00104746 0.00108247 0.00111947 0.00115842 0.00119926 0.00124194 0.00128637 0.00133248 0.00138015 0.00142929 0.00147976 0.00153143 0.00158413 0.00163769 0.00169192 0.00174662 0.00180155 0.0018565 0.00191119 0.00196536 0.00201874 0.00207104 0.00212195 0.00217118 0.00221842 0.00226336 0.00230571 0.00234517 0.00238146 0.00241432 0.0024435 0.00246878 0.00248997 0.00250689 0.00251942 0.00252746 0.00253094 0.00252984 0.00252418 0.00251401 0.00249941 0.00248051 0.00245747 0.00243048 0.00239975 0.00236554 0.00232809 0.0022877 0.00224465 0.00219926 0.00215183 0.00210267 0.00205209 0.00200041 0.00194792 0.00189492 0.00184168 0.00178848 0.00173556 0.00168317 0.00163152 0.00158083 0.00153128 0.00148306 0.00143631 0.00139118 0.0013478 0.00130629 0.00126675 0.00122926 0.00119392 0.00116078 0.00112991 0.00110136 0.00107517 0.00105139 0.00103003 0.00101114 0.000994726 0.00098081 0.000969407 0.000960527 0.000954179 0.000950368 0.000949097 
0.000787483 0.000788601 0.000791954 0.000797544 0.000805372 0.000815441 0.000827754 0.000842312 0.000859119 0.000878175 0.000899482 0.000923038 0.000948839 0.00097688 0.00100715 0.00103963 0.00107431 0.00111116 0.00115014 0.00119122 0.00123434 0.00127945 0.00132646 0.0013753 0.00142586 0.00147804 0.00153169 0.00158669 0.00164285 0.00170001 0.00175795 0.00181647 0.00187531 0.00193424 0.00199297 0.00205122 0.00210867 0.00216503 0.00221996 0.00227313 0.00232419 0.00237283 0.0024187 0.00246147 0.00250084 0.00253651 0.00256821 0.00259568 0.00261871 0.00263711 0.00265073 0.00265946 0.00266322 0.00266201 0.00265582 0.00264471 0.0026288 0.0026082 0.00258312 0.00255375 0.00252033 0.00248315 0.0024425 0.00239868 0.00235202 0.00230286 0.00225155 0.00219843 0.00214383 0.0020881 0.00203157 0.00197455 0.00191734 0.00186024 0.00180351 0.00174741 0.00169218 0.00163803 0.00158517 0.00153377 0.00148401 0.00143602 0.00138995 0.0013459 0.00130398 0.00126428 0.00122688 0.00119185 0.00115924 0.0011291 0.00110148 0.0010764 0.00105391 0.00103401 0.00101673 0.00100209 0.000990099 0.000980762 0.000974088 0.000970082 0.000968746 
0.000802482 0.000803652 0.000807162 0.000813015 0.000821214 0.000831762 0.000844663 0.000859925 0.00087755 0.000897546 0.000919915 0.000944661 0.000971785 0.00100128 0.00103315 0.00106739 0.00110396 0.00114286 0.00118406 0.00122752 0.00127319 0.00132101 0.00137092 0.00142282 0.00147662 0.00153222 0.00158946 0.0016482 0.00170828 0.00176949 0.00183164 0.00189447 0.00195776 0.0020212 0.00208452 0.0021474 0.0022095 0.00227049 0.00233 0.00238766 0.00244311 0.00249597 0.00254587 0.00259244 0.00263535 0.00267424 0.00270882 0.00273881 0.00276396 0.00278405 0.00279893 0.00280845 0.00281255 0.00281119 0.00280439 0.00279222 0.00277479 0.00275225 0.00272481 0.0026927 0.0026562 0.00261562 0.00257127 0.00252352 0.00247273 0.00241927 0.00236353 0.00230587 0.00224669 0.00218635 0.00212521 0.00206362 0.00200191 0.00194038 0.00187933 0.00181904 0.00175976 0.00170171 0.0016451 0.00159013 0.00153697 0.00148577 0.00143667 0.00138977 0.00134519 0.00130301 0.00126331 0.00122616 0.00119161 0.0011597 0.00113047 0.00110396 0.00108019 0.00105918 0.00104094 0.00102549 0.00101284 0.00100299 0.000995957 0.000991734 0.000990326 
0.000818768 0.000819995 0.000823679 0.00082982 0.000838425 0.000849498 0.000863048 0.000879081 0.000897608 0.000918636 0.000942174 0.000968231 0.000996812 0.00102792 0.00106156 0.00109772 0.00113639 0.00117756 0.00122121 0.00126731 0.0013158 0.00136664 0.00141976 0.00147508 0.0015325 0.0015919 0.00165315 0.00171609 0.00178054 0.00184631 0.00191316 0.00198086 0.00204913 0.00211767 0.00218616 0.00225427 0.00232162 0.00238785 0.00245255 0.00251532 0.00257574 0.00263341 0.00268789 0.00273879 0.00278572 0.0028283 0.00286617 0.00289904 0.0029266 0.00294864 0.00296494 0.00297538 0.00297985 0.00297833 0.00297084 0.00295744 0.00293827 0.0029135 0.00288337 0.00284814 0.00280812 0.00276365 0.00271511 0.00266288 0.00260739 0.00254903 0.00248825 0.00242546 0.00236108 0.00229553 0.00222918 0.00216243 0.00209563 0.00202912 0.00196322 0.00189822 0.00183438 0.00177196 0.00171117 0.00165221 0.00159526 0.00154047 0.00148799 0.00143792 0.00139038 0.00134545 0.0013032 0.0012637 0.00122699 0.00119312 0.00116212 0.00113402 0.00110884 0.0010866 0.0010673 0.00105096 0.00103758 0.00102718 0.00101974 0.00101528 0.00101379 
0.0008363 0.00083759 0.000841462 0.000847918 0.000856965 0.000868611 0.000882866 0.000899742 0.00091925 0.000941406 0.000966221 0.00099371 0.00102388 0.00105675 0.00109232 0.0011306 0.00117157 0.00121524 0.00126158 0.00131058 0.00136219 0.00141636 0.00147303 0.00153212 0.00159353 0.00165715 0.00172284 0.00179044 0.00185977 0.0019306 0.00200272 0.00207584 0.00214969 0.00222393 0.00229823 0.0023722 0.00244546 0.00251759 0.00258814 0.00265667 0.00272272 0.00278581 0.00284549 0.00290129 0.00295279 0.00299954 0.00304116 0.00307729 0.00310761 0.00313185 0.00314978 0.00316125 0.00316616 0.00316445 0.00315616 0.00314137 0.00312023 0.00309292 0.00305973 0.00302094 0.00297692 0.00292804 0.00287474 0.00281744 0.00275662 0.00269273 0.00262626 0.00255768 0.00248745 0.00241602 0.00234382 0.00227128 0.00219879 0.0021267 0.00205537 0.00198511 0.0019162 0.0018489 0.00178346 0.00172006 0.00165891 0.00160015 0.00154393 0.00149036 0.00143955 0.00139158 0.00134652 0.00130443 0.00126535 0.00122933 0.00119638 0.00116654 0.00113982 0.00111622 0.00109576 0.00107845 0.00106428 0.00105326 0.00104539 0.00104066 0.00103909 
0.000855033 0.000856391 0.000860466 0.000867262 0.000876788 0.000889054 0.000904072 0.00092186 0.000942433 0.00096581 0.00099201 0.00102105 0.00105296 0.00108774 0.00112541 0.00116599 0.00120947 0.00125586 0.00130515 0.00135732 0.00141233 0.00147015 0.00153072 0.00159395 0.00165977 0.00172804 0.00179863 0.00187138 0.00194609 0.00202254 0.00210049 0.00217964 0.00225969 0.00234029 0.00242106 0.0025016 0.00258147 0.0026602 0.00273732 0.00281232 0.00288468 0.00295389 0.00301943 0.00308077 0.00313742 0.00318889 0.00323475 0.00327458 0.00330802 0.00333476 0.00335454 0.00336719 0.00337258 0.00337066 0.00336147 0.0033451 0.00332171 0.00329153 0.00325486 0.00321205 0.0031635 0.00310964 0.00305095 0.00298793 0.0029211 0.00285099 0.00277813 0.00270304 0.00262624 0.00254823 0.00246949 0.00239049 0.00231163 0.00223334 0.00215597 0.00207987 0.00200533 0.00193264 0.00186204 0.00179375 0.00172796 0.00166483 0.00160449 0.00154708 0.00149268 0.00144138 0.00139324 0.00134832 0.00130666 0.00126828 0.00123321 0.00120147 0.00117306 0.001148 0.00112628 0.00110791 0.00109288 0.00108119 0.00107284 0.00106783 0.00106616 
0.000874916 0.000876346 0.00088064 0.000887802 0.000897842 0.000910774 0.000926615 0.000945384 0.000967103 0.000991797 0.00101949 0.00105021 0.00108398 0.00112083 0.00116078 0.00120385 0.00125006 0.0012994 0.00135188 0.0014075 0.00146622 0.00152802 0.00159284 0.00166061 0.00173123 0.0018046 0.00188058 0.00195898 0.00203963 0.00212227 0.00220666 0.00229248 0.0023794 0.00246705 0.00255501 0.00264285 0.00273008 0.00281619 0.00290064 0.00298288 0.00306233 0.00313841 0.00321052 0.00327809 0.00334054 0.00339734 0.00344798 0.00349199 0.00352895 0.00355852 0.00358039 0.00359437 0.00360031 0.00359816 0.00358795 0.00356978 0.00354385 0.00351042 0.00346983 0.00342247 0.00336881 0.00330933 0.00324458 0.00317513 0.00310155 0.00302446 0.00294443 0.00286206 0.00277792 0.00269258 0.00260655 0.00252035 0.00243444 0.00234926 0.00226521 0.00218265 0.0021019 0.00202327 0.00194701 0.00187333 0.00180245 0.00173452 0.00166969 0.00160807 0.00154975 0.00149482 0.00144333 0.00139533 0.00135085 0.00130992 0.00127255 0.00123875 0.00120852 0.00118187 0.00115878 0.00113926 0.0011233 0.00111089 0.00110203 0.00109672 0.00109495 
0.000895893 0.000897401 0.000901928 0.000909481 0.000920072 0.000933717 0.000950437 0.000970257 0.000993204 0.00101931 0.0010486 0.00108112 0.0011169 0.00115598 0.00119838 0.00124413 0.00129327 0.0013458 0.00140174 0.00146109 0.00152383 0.00158995 0.00165938 0.00173208 0.00180795 0.00188688 0.00196874 0.00205334 0.00214048 0.00222993 0.00232139 0.00241456 0.00250906 0.0026045 0.00270043 0.00279635 0.00289176 0.00298607 0.00307869 0.00316901 0.00325638 0.00334013 0.00341961 0.00349417 0.00356314 0.00362593 0.00368195 0.00373067 0.0037716 0.00380436 0.00382859 0.00384407 0.00385063 0.00384821 0.00383685 0.00381666 0.00378786 0.00375077 0.00370575 0.00365328 0.00359386 0.00352806 0.00345651 0.00337984 0.00329871 0.0032138 0.00312577 0.00303528 0.00294298 0.00284948 0.00275536 0.00266119 0.00256748 0.00247469 0.00238327 0.0022936 0.00220603 0.00212087 0.00203839 0.00195883 0.00188239 0.00180923 0.0017395 0.0016733 0.00161073 0.00155185 0.00149673 0.0014454 0.00139788 0.00135419 0.00131434 0.00127832 0.00124613 0.00121776 0.0011932 0.00117245 0.00115549 0.0011423 0.00113289 0.00112725 0.00112537 