<?xml version="1.0"?>
<VTKFile type="StructuredGrid" version="0.1">
    <StructuredGrid WholeExtent="0 100 0 100 0 0">
        <Piece Extent="0 100 0 100 0 0">
            <Points>
                <DataArray type="Float64" NumberOfComponents="3" format="ascii">
-15 -15 0
-15 -14.7 0
-15 -14.4 0
-15 -14.1 0
-15 -13.8 0
-15 -13.5 0
-15 -13.2 0
-15 -12.9 0
-15 -12.6 0
-15 -12.3 0
-15 -12 0
-15 -11.7 0
-15 -11.4 0
-15 -11.1 0
-15 -10.8 0
-15 -10.5 0
-15 -10.2 0
-15 -9.9 0
-15 -9.6 0
-15 -9.3 0
-15 -9 0
-15 -8.7 0
-15 -8.4 0
-15 -8.1 0
-15 -7.8 0
-15 -7.5 0
-15 -7.2 0
-15 -6.9 0
-15 -6.6 0
-15 -6.3 0
-15 -6 0
-15 -5.7 0
-15 -5.4 0
-15 -5.1 0
-15 -4.8 0
-15 -4.5 0
-15 -4.2 0
-15 -3.9 0
-15 -3.6 0
-15 -3.3 0
-15 -3 0
-15 -2.7 0
-15 -2.4 0
-15 -2.1 0
-15 -1.8 0
-15 -1.5 0
-15 -1.2 0
-15 -0.9 0
-15 -0.6 0
-15 -0.3 0
-15 0 0
-15 0.3 0
-15 0.6 0
-15 0.9 0
-15 1.2 0
-15 1.5 0
-15 1.8 0
-15 2.1 0
-15 2.4 0
-15 2.7 0
-15 3 0
-15 3.3 0
-15 3.6 0
-15 3.9 0
-15 4.2 0
-15 4.5 0
-15 4.8 0
-15 5.1 0
-15 5.4 0
-15 5.7 0
-15 6 0
-15 6.3 0
-15 6.6 0
-15 6.9 0
-15 7.2 0
-15 7.5 0
-15 7.8 0
-15 8.1 0
-15 8.4 0
-15 8.7 0
-15 9 0
-15 9.3 0
-15 9.6 0
-15 9.9 0
-15 10.2 0
-15 10.5 0
-15 10.8 0
-15 11.1 0
-15 11.4 0
-15 11.7 0
-15 12 0
-15 12.3 0
-15 12.6 0
-15 12.9 0
-15 13.2 0
-15 13.5 0
-15 13.8 0
-15 14.1 0
-15 14.4 0
-15 14.7 0
-15 15 0
-14.7 -15 0
-14.7 -14.7 0
-14.7 -14.4 0
-14.7 -14.1 0
-14.7 -13.8 0
-14.7 -13.5 0
-14.7 -13.2 0
-14.7 -12.9 0
-14.7 -12.6 0
-14.7 -12.3 0
-14.7 -12 0
-14.7 -11.7 0
-14.7 -11.4 0
-14.7 -11.1 0
-14.7 -10.8 0
-14.7 -10.5 0
-14.7 -10.2 0
-14.7 -9.9 0
-14.7 -9.6 0
-14.7 -9.3 0
-14.7 -9 0
-14.7 -8.7 0
-14.7 -8.4 0
-14.7 -8.1 0
-14.7 -7.8 0
-14.7 -7.5 0
-14.7 -7.2 0
-14.7 -6.9 0
-14.7 -6.6 0
-14.7 -6.3 0
-14.7 -6 0
-14.7 -5.7 0
-14.7 -5.4 0
-14.7 -5.1 0
-14.7 -4.8 0
-14.7 -4.5 0
-14.7 -4.2 0
-14.7 -3.9 0
-14.7 -3.6 0
-14.7 -3.3 0
-14.7 -3 0
-14.7 -2.7 0
-14.7 -2.4 0
-14.7 -2.1 0
-14.7 -1.8 0
-14.7 -1.5 0
-14.7 -1.2 0
-14.7 -0.9 0
-14.7 -0.6 0
-14.7 -0.3 0
-14.7 0 0
-14.7 0.3 0
-14.7 0.6 0
-14.7 0.9 0
-14.7 1.2 0
-14.7 1.5 0
-14.7 1.8 0
-14.7 2.1 0
-14.7 2.4 0
-14.7 2.7 0
-14.7 3 0
-14.7 3.3 0
-14.7 3.6 0
-14.7 3.9 0
-14.7 4.2 0
-14.7 4.5 0
-14.7 4.8 0
-14.7 5.1 0
-14.7 5.4 0
-14.7 5.7 0
-14.7 6 0
-14.7 6.3 0
-14.7 6.6 0
-14.7 6.9 0
-14.7 7.2 0
-14.7 7.5 0
-14.7 7.8 0
-14.7 8.1 0
-14.7 8.4 0
-14.7 8.7 0
-14.7 9 0
-14.7 9.3 0
-14.7 9.6 0
-14.7 9.9 0
-14.7 10.2 0
-14.7 10.5 0
-14.7 10.8 0
-14.7 11.1 0
-14.7 11.4 0
-14.7 11.7 0
-14.7 12 0
-14.7 12.3 0
-14.7 12.6 0
-14.7 12.9 0
-14.7 13.2 0
-14.7 13.5 0
-14.7 13.8 0
-14.7 14.1 0
-14.7 14.4 0
-14.7 14.7 0
-14.7 15 0
-14.4 -15 0
-14.4 -14.7 0
-14.4 -14.4 0
-14.4 -14.1 0
-14.4 -13.8 0
-14.4 -13.5 0
-14.4 -13.2 0
-14.4 -12.9 0
-14.4 -12.6 0
-14.4 -12.3 0
-14.4 -12 0
-14.4 -11.7 0
-14.4 -11.4 0
-14.4 -11.1 0
-14.4 -10.8 0
-14.4 -10.5 0
-14.4 -10.2 0
-14.4 -9.9 0
-14.4 -9.6 0
-14.4 -9.3 0
-14.4 -9 0
-14.4 -8.7 0
-14.4 -8.4 0
-14.4 -8.1 0
-14.4 -7.8 0
-14.4 -7.5 0
-14.4 -7.2 0
-14.4 -6.9 0
-14.4 -6.6 0
-14.4 -6.3 0
-14.4 -6 0
-14.4 -5.7 0
-14.4 -5.4 0
-14.4 -5.1 0
-14.4 -4.8 0
-14.4 -4.5 0
-14.4 -4.2 0
-14.4 -3.9 0
-14.4 -3.6 0
-14.4 -3.3 0
-14.4 -3 0
-14.4 -2.7 0
-14.4 -2.4 0
-14.4 -2.1 0
-14.4 -1.8 0
-14.4 -1.5 0
-14.4 -1.2 0
-14.4 -0.9 0
-14.4 -0.6 0
-14.4 -0.3 0
-14.4 0 0
-14.4 0.3 0
-14.4 0.6 0
-14.4 0.9 0
-14.4 1.2 0
-14.4 1.5 0
-14.4 1.8 0
-14.4 2.1 0
-14.4 2.4 0
-14.4 2.7 0
-14.4 3 0
-14.4 3.3 0
-14.4 3.6 0
-14.4 3.9 0
-14.4 4.2 0
-14.4 4.5 0
-14.4 4.8 0
-14.4 5.1 0
-14.4 5.4 0
-14.4 5.7 0
-14.4 6 0
-14.4 6.3 0
-14.4 6.6 0
-14.4 6.9 0
-14.4 7.2 0
-14.4 7.5 0
-14.4 7.8 0
-14.4 8.1 0
-14.4 8.4 0
-14.4 8.7 0
-14.4 9 0
-14.4 9.3 0
-14.4 9.6 0
-14.4 9.9 0
-14.4 10.2 0
-14.4 10.5 0
-14.4 10.8 0
-14.4 11.1 0
-14.4 11.4 0
-14.4 11.7 0
-14.4 12 0
-14.4 12.3 0
-14.4 12.6 0
-14.4 12.9 0
-14.4 13.2 0
-14.4 13.5 0
-14.4 13.8 0
-14.4 14.1 0
-14.4 14.4 0
-14.4 14.7 0
-14.4 15 0
-14.1 -15 0
-14.1 -14.7 0
-14.1 -14.4 0
-14.1 -14.1 0
-14.1 -13.8 0
-14.1 -13.5 0
-14.1 -13.2 0
-14.1 -12.9 0
-14.1 -12.6 0
-14.1 -12.3 0
-14.1 -12 0
-14.1 -11.7 0
-14.1 -11.4 0
-14.1 -11.1 0
-14.1 -10.8 0
-14.1 -10.5 0
-14.1 -10.2 0
-14.1 -9.9 0
-14.1 -9.6 0
-14.1 -9.3 0
-14.1 -9 0
-14.1 -8.7 0
-14.1 -8.4 0
-14.1 -8.1 0
-14.1 -7.8 0
-14.1 -7.5 0
-14.1 -7.2 0
-14.1 -6.9 0
-14.1 -6.6 0
-14.1 -6.3 0
-14.1 -6 0
-14.1 -5.7 0
-14.1 -5.4 0
-14.1 -5.1 0
-14.1 -4.8 0
-14.1 -4.5 0
-14.1 -4.2 0
-14.1 -3.9 0
-14.1 -3.6 0
-14.1 -3.3 0
-14.1 -3 0
-14.1 -2.7 0
-14.1 -2.4 0
-14.1 -2.1 0
-14.1 -1.8 0
-14.1 -1.5 0
-14.1 -1.2 0
-14.1 -0.9 0
-14.1 -0.6 0
-14.1 -0.3 0
-14.1 0 0
-14.1 0.3 0
-14.1 0.6 0
-14.1 0.9 0
-14.1 1.2 0
-14.1 1.5 0
-14.1 1.8 0
-14.1 2.1 0
-14.1 2.4 0
-14.1 2.7 0
-14.1 3 0
-14.1 3.3 0
-14.1 3.6 0
-14.1 3.9 0
-14.1 4.2 0
-14.1 4.5 0
-14.1 4.8 0
-14.1 5.1 0
-14.1 5.4 0
-14.1 5.7 0
-14.1 6 0
-14.1 6.3 0
-14.1 6.6 0
-14.1 6.9 0
-14.1 7.2 0
-14.1 7.5 0
-14.1 7.8 0
-14.1 8.1 0
-14.1 8.4 0
-14.1 8.7 0
-14.1 9 0
-14.1 9.3 0
-14.1 9.6 0
-14.1 9.9 0
-14.1 10.2 0
-14.1 10.5 0
-14.1 10.8 0
-14.1 11.1 0
-14.1 11.4 0
-14.1 11.7 0
-14.1 12 0
-14.1 12.3 0
-14.1 12.6 0
-14.1 12.9 0
-14.1 13.2 0
-14.1 13.5 0
-14.1 13.8 0
-14.1 14.1 0
-14.1 14.4 0
-14.1 14.7 0
-14.1 15 0
-13.8 -15 0
-13.8 -14.7 0
-13.8 -14.4 0
-13.8 -14.1 0
-13.8 -13.8 0
-13.8 -13.5 0
-13.8 -13.2 0
-13.8 -12.9 0
-13.8 -12.6 0
-13.8 -12.3 0
-13.8 -12 0
-13.8 -11.7 0
-13.8 -11.4 0
-13.8 -11.1 0
-13.8 -10.8 0
-13.8 -10.5 0
-13.8 -10.2 0
-13.8 -9.9 0
-13.8 -9.6 0
-13.8 -9.3 0
-13.8 -9 0
-13.8 -8.7 0
-13.8 -8.4 0
-13.8 -8.1 0
-13.8 -7.8 0
-13.8 -7.5 0
-13.8 -7.2 0
-13.8 -6.9 0
-13.8 -6.6 0
-13.8 -6.3 0
-13.8 -6 0
-13.8 -5.7 0
-13.8 -5.4 0
-13.8 -5.1 0
-13.8 -4.8 0
-13.8 -4.5 0
-13.8 -4.2 0
-13.8 -3.9 0
-13.8 -3.6 0
-13.8 -3.3 0
-13.8 -3 0
-13.8 -2.7 0
-13.8 -2.4 0
-13.8 -2.1 0
-13.8 -1.8 0
-13.8 -1.5 0
-13.8 -1.2 0
-13.8 -0.9 0
-13.8 -0.6 0
-13.8 -0.3 0
-13.8 0 0
-13.8 0.3 0
-13.8 0.6 0
-13.8 0.9 0
-13.8 1.2 0
-13.8 1.5 0
-13.8 1.8 0
-13.8 2.1 0
-13.8 2.4 0
-13.8 2.7 0
-13.8 3 0
-13.8 3.3 0
-13.8 3.6 0
-13.8 3.9 0
-13.8 4.2 0
-13.8 4.5 0
-13.8 4.8 0
-13.8 5.1 0
-13.8 5.4 0
-13.8 5.7 0
-13.8 6 0
-13.8 6.3 0
-13.8 6.6 0
-13.8 6.9 0
-13.8 7.2 0
-13.8 7.5 0
-13.8 7.8 0
-13.8 8.1 0
-13.8 8.4 0
-13.8 8.7 0
-13.8 9 0
-13.8 9.3 0
-13.8 9.6 0
-13.8 9.9 0
-13.8 10.2 0
-13.8 10.5 0
-13.8 10.8 0
-13.8 11.1 0
-13.8 11.4 0
-13.8 11.7 0
-13.8 12 0
-13.8 12.3 0
-13.8 12.6 0
-13.8 12.9 0
-13.8 13.2 0
-13.8 13.5 0
-13.8 13.8 0
-13.8 14.1 0
-13.8 14.4 0
-13.8 14.7 0
-13.8 15 0
-13.5 -15 0
-13.5 -14.7 0
-13.5 -14.4 0
-13.5 -14.1 0
-13.5 -13.8 0
-13.5 -13.5 0
-13.5 -13.2 0
-13.5 -12.9 0
-13.5 -12.6 0
-13.5 -12.3 0
-13.5 -12 0
-13.5 -11.7 0
-13.5 -11.4 0
-13.5 -11.1 0
-13.5 -10.8 0
-13.5 -10.5 0
-13.5 -10.2 0
-13.5 -9.9 0
-13.5 -9.6 0
-13.5 -9.3 0
-13.5 -9 0
-13.5 -8.7 0
-13.5 -8.4 0
-13.5 -8.1 0
-13.5 -7.8 0
-13.5 -7.5 0
-13.5 -7.2 0
-13.5 -6.9 0
-13.5 -6.6 0
-13.5 -6.3 0
-13.5 -6 0
-13.5 -5.7 0
-13.5 -5.4 0
-13.5 -5.1 0
-13.5 -4.8 0
-13.5 -4.5 0
-13.5 -4.2 0
-13.5 -3.9 0
-13.5 -3.6 0
-13.5 -3.3 0
-13.5 -3 0
-13.5 -2.7 0
-13.5 -2.4 0
-13.5 -2.1 0
-13.5 -1.8 0
-13.5 -1.5 0
-13.5 -1.2 0
-13.5 -0.9 0
-13.5 -0.6 0
-13.5 -0.3 0
-13.5 0 0
-13.5 0.3 0
-13.5 0.6 0
-13.5 0.9 0
-13.5 1.2 0
-13.5 1.5 0
-13.5 1.8 0
-13.5 2.1 0
-13.5 2.4 0
-13.5 2.7 0
-13.5 3 0
-13.5 3.3 0
-13.5 3.6 0
-13.5 3.9 0
-13.5 4.2 0
-13.5 4.5 0
-13.5 4.8 0
-13.5 5.1 0
-13.5 5.4 0
-13.5 5.7 0
-13.5 6 0
-13.5 6.3 0
-13.5 6.6 0
-13.5 6.9 0
-13.5 7.2 0
-13.5 7.5 0
-13.5 7.8 0
-13.5 8.1 0
-13.5 8.4 0
-13.5 8.7 0
-13.5 9 0
-13.5 9.3 0
-13.5 9.6 0
-13.5 9.9 0
-13.5 10.2 0
-13.5 10.5 0
-13.5 10.8 0
-13.5 11.1 0
-13.5 11.4 0
-13.5 11.7 0
-13.5 12 0
-13.5 12.3 0
-13.5 12.6 0
-13.5 12.9 0
-13.5 13.2 0
-13.5 13.5 0
-13.5 13.8 0
-13.5 14.1 0
-13.5 14.4 0
-13.5 14.7 0
-13.5 15 0
-13.2 -15 0
-13.2 -14.7 0
-13.2 -14.4 0
-13.2 -14.1 0
-13.2 -13.8 0
-13.2 -13.5 0
-13.2 -13.2 0
-13.2 -12.9 0
-13.2 -12.6 0
-13.2 -12.3 0
-13.2 -12 0
-13.2 -11.7 0
-13.2 -11.4 0
-13.2 -11.1 0
-13.2 -10.8 0
-13.2 -10.5 0
-13.2 -10.2 0
-13.2 -9.9 0
-13.2 -9.6 0
-13.2 -9.3 0
-13.2 -9 0
-13.2 -8.7 0
-13.2 -8.4 0
-13.2 -8.1 0
-13.2 -7.8 0
-13.2 -7.5 0
-13.2 -7.2 0
-13.2 -6.9 0
-13.2 -6.6 0
-13.2 -6.3 0
-13.2 -6 0
-13.2 -5.7 0
-13.2 -5.4 0
-13.2 -5.1 0
-13.2 -4.8 0
-13.2 -4.5 0
-13.2 -4.2 0
-13.2 -3.9 0
-13.2 -3.6 0
-13.2 -3.3 0
-13.2 -3 0
-13.2 -2.7 0
-13.2 -2.4 0
-13.2 -2.1 0
-13.2 -1.8 0
-13.2 -1.5 0
-13.2 -1.2 0
-13.2 -0.9 0
-13.2 -0.6 0
-13.2 -0.3 0
-13.2 0 0
-13.2 0.3 0
-13.2 0.6 0
-13.2 0.9 0
-13.2 1.2 0
-13.2 1.5 0
-13.2 1.8 0
-13.2 2.1 0
-13.2 2.4 0
-13.2 2.7 0
-13.2 3 0
-13.2 3.3 0
-13.2 3.6 0
-13.2 3.9 0
-13.2 4.2 0
-13.2 4.5 0
-13.2 4.8 0
-13.2 5.1 0
-13.2 5.4 0
-13.2 5.7 0
-13.2 6 0
-13.2 6.3 0
-13.2 6.6 0
-13.2 6.9 0
-13.2 7.2 0
-13.2 7.5 0
-13.2 7.8 0
-13.2 8.1 0
-13.2 8.4 0
-13.2 8.7 0
-13.2 9 0
-13.2 9.3 0
-13.2 9.6 0
-13.2 9.9 0
-13.2 10.2 0
-13.2 10.5 0
-13.2 10.8 0
-13.2 11.1 0
-13.2 11.4 0
-13.2 11.7 0
-13.2 12 0
-13.2 12.3 0
-13.2 12.6 0
-13.2 12.9 0
-13.2 13.2 0
-13.2 13.5 0
-13.2 13.8 0
-13.2 14.1 0
-13.2 14.4 0
-13.2 14.7 0
-13.2 15 0
-12.9 -15 0
-12.9 -14.7 0
-12.9 -14.4 0
-12.9 -14.1 0
-12.9 -13.8 0
-12.9 -13.5 0
-12.9 -13.2 0
-12.9 -12.9 0
-12.9 -12.6 0
-12.9 -12.3 0
-12.9 -12 0
-12.9 -11.7 0
-12.9 -11.4 0
-12.9 -11.1 0
-12.9 -10.8 0
-12.9 -10.5 0
-12.9 -10.2 0
-12.9 -9.9 0
-12.9 -9.6 0
-12.9 -9.3 0
-12.9 -9 0
-12.9 -8.7 0
-12.9 -8.4 0
-12.9 -8.1 0
-12.9 -7.8 0
-12.9 -7.5 0
-12.9 -7.2 0
-12.9 -6.9 0
-12.9 -6.6 0
-12.9 -6.3 0
-12.9 -6 0
-12.9 -5.7 0
-12.9 -5.4 0
-12.9 -5.1 0
-12.9 -4.8 0
-12.9 -4.5 0
-12.9 -4.2 0
-12.9 -3.9 0
-12.9 -3.6 0
-12.9 -3.3 0
-12.9 -3 0
-12.9 -2.7 0
-12.9 -2.4 0
-12.9 -2.1 0
-12.9 -1.8 0
-12.9 -1.5 0
-12.9 -1.2 0
-12.9 -0.9 0
-12.9 -0.6 0
-12.9 -0.3 0
-12.9 0 0
-12.9 0.3 0
-12.9 0.6 0
-12.9 0.9 0
-12.9 1.2 0
-12.9 1.5 0
-12.9 1.8 0
-12.9 2.1 0
-12.9 2.4 0
-12.9 2.7 0
-12.9 3 0
-12.9 3.3 0
-12.9 3.6 0
-12.9 3.9 0
-12.9 4.2 0
-12.9 4.5 0
-12.9 4.8 0
-12.9 5.1 0
-12.9 5.4 0
-12.9 5.7 0
-12.9 6 0
-12.9 6.3 0
-12.9 6.6 0
-12.9 6.9 0
-12.9 7.2 0
-12.9 7.5 0
-12.9 7.8 0
-12.9 8.1 0
-12.9 8.4 0
-12.9 8.7 0
-12.9 9 0
[...]
            <PointData>
                <DataArray type="Float64" Name="c1" format="ascii">
0.00393443 0.00393919 0.00395349 0.00397735 0.00401084 0.00405402 0.00410699 0.00416987 0.0042428 0.00432594 0.00441945 0.00452353 0.00463839 0.00476425 0.00490137 0.00504998 0.00521035 0.00538276 0.00556749 0.00576485 0.00597511 0.00619859 0.00643557 0.00668633 0.00695111 0.00723011 0.00752349 0.00783135 0.00815375 0.00849046 0.0088402 0.00919804 0.00954867 0.00985063 0.0101115 0.0103414 0.0105437 0.0107285 0.0109179 0.0111127 0.0113087 0.0115107 0.0117152 0.0118987 0.0120643 0.0122517 0.0126277 0.0130581 0.0133555 0.0135289 0.013599 0.0135743 0.0135057 0.0134336 0.0133326 0.013198 0.0130575 0.0129197 0.012803 0.0126973 0.0125963 0.0124983 0.0124014 0.0122974 0.0121687 0.0120076 0.0118129 0.0115877 0.0113431 0.0110721 0.0107706 0.0104403 0.0100964 0.00975217 0.00941555 0.00909032 0.00877798 0.00847897 0.00819333 0.00792097 0.00766181 0.00741575 0.00718274 0.00696273 0.00675567 0.00656155 0.00638033 0.00621196 0.0060564 0.00591361 0.00578351 0.00566607 0.0055612 0.00546885 0.00538896 0.00532147 0.00526633 0.00522349 0.00519291 0.00517458 0.00516847 
0.00393535 0.00394011 0.00395442 0.0039783 0.00401181 0.00405502 0.00410803 0.00417096 0.00424394 0.00432714 0.00442072 0.00452488 0.00463983 0.0047658 0.00490302 0.00505176 0.00521227 0.00538484 0.00556974 0.00576728 0.00597776 0.00620147 0.00643872 0.00668979 0.00695494 0.0072344 0.00752834 0.00783694 0.00816033 0.00849863 0.00885149 0.00921696 0.00958727 0.00988363 0.0101372 0.0103633 0.0105589 0.0107308 0.0109177 0.0111125 0.0113052 0.0115103 0.0117248 0.0119033 0.0120448 0.0121485 0.0125918 0.0131169 0.0134093 0.0135634 0.0136262 0.0135858 0.0135031 0.0134457 0.0133539 0.0132104 0.0130684 0.0129234 0.0128129 0.0127113 0.012612 0.0125157 0.0124236 0.012329 0.0122046 0.0120448 0.0118489 0.0116184 0.0113772 0.0111083 0.0108058 0.0104676 0.0101164 0.00976729 0.00942778 0.00910082 0.00878737 0.00848755 0.00820123 0.00792828 0.00766855 0.00742197 0.00718846 0.00696798 0.0067605 0.00656598 0.00638439 0.00621568 0.00605983 0.00591677 0.00578644 0.00566878 0.00556373 0.00547123 0.0053912 0.0053236 0.00526836 0.00522546 0.00519483 0.00517647 0.00517035 
0.00393809 0.00394287 0.0039572 0.00398113 0.00401471 0.00405802 0.00411114 0.00417421 0.00424735 0.00433073 0.00442452 0.00452892 0.00464414 0.00477042 0.00490798 0.00505709 0.00521802 0.00539105 0.00557646 0.00577457 0.00598567 0.00621008 0.00644812 0.0067001 0.00696634 0.00724712 0.00754269 0.00785332 0.0081793 0.00852118 0.00888025 0.009261 0.00962097 0.00987779 0.0101048 0.0103065 0.0104807 0.0106674 0.010861 0.0110597 0.0112725 0.0115437 0.0117741 0.0119412 0.0120544 0.0121112 0.012413 0.0128965 0.0131799 0.0133035 0.0133289 0.0133085 0.0133115 0.0133105 0.0132624 0.013168 0.0130526 0.01292 0.0128443 0.0127554 0.0126592 0.0125647 0.0124853 0.0124287 0.0123152 0.012158 0.0119604 0.011701 0.0114802 0.0112191 0.0109171 0.010548 0.0101733 0.00981031 0.00946306 0.00913158 0.00881516 0.00851309 0.00822486 0.00795015 0.00768877 0.00744061 0.00720561 0.00698373 0.00677494 0.00657922 0.00639654 0.00622684 0.00607009 0.00592622 0.00579518 0.0056769 0.0055713 0.00547832 0.0053979 0.00532996 0.00527446 0.00523135 0.00520058 0.00518213 0.00517598 
0.00394265 0.00394744 0.00396183 0.00398584 0.00401954 0.00406299 0.00411631 0.0041796 0.004253 0.00433669 0.00443083 0.00453563 0.0046513 0.00477808 0.00491621 0.00506594 0.00522757 0.00540136 0.00558761 0.00578664 0.00599877 0.00622431 0.00646363 0.00671709 0.00698505 0.0072679 0.00756599 0.00787964 0.00820907 0.00855447 0.00891609 0.00929261 0.00956168 0.00978238 0.0100039 0.0102124 0.0104086 0.010618 0.0108237 0.0110273 0.0112351 0.0115972 0.0119065 0.0120457 0.0121306 0.0121455 0.0123307 0.0127466 0.0129898 0.0130875 0.0131332 0.0132155 0.0132282 0.0132381 0.0132131 0.0131433 0.0130307 0.0129618 0.0129184 0.0128392 0.0127385 0.0126338 0.0125604 0.0124605 0.0123508 0.0121977 0.0120244 0.0117848 0.0115221 0.0112746 0.0110048 0.0106718 0.0102557 0.00987403 0.00951752 0.00918068 0.00886045 0.00855519 0.00826402 0.00798649 0.00772238 0.0074716 0.00723411 0.00700989 0.00679894 0.00660122 0.00641671 0.00624535 0.00608711 0.00594191 0.00580969 0.00569036 0.00558386 0.0054901 0.00540901 0.00534052 0.00528457 0.00524112 0.00521011 0.00519152 0.00518532 
0.00394899 0.00395381 0.00396826 0.00399239 0.00402625 0.00406992 0.00412349 0.00418709 0.00426087 0.00434498 0.00443962 0.00454497 0.00466127 0.00478874 0.00492765 0.00507826 0.00524084 0.00541569 0.00560312 0.00580342 0.00601695 0.00624404 0.00648506 0.00674045 0.00701065 0.00729618 0.00759751 0.00791503 0.00824875 0.00859817 0.00896399 0.00930036 0.0095027 0.00971499 0.00994015 0.0101575 0.0103854 0.01061 0.0108302 0.0110543 0.0113296 0.0116518 0.01195 0.012177 0.0123048 0.0122984 0.0123708 0.0127539 0.0129481 0.0129782 0.0131558 0.0132509 0.0132292 0.0132488 0.0132451 0.0131902 0.013084 0.013081 0.0130574 0.0129763 0.0128555 0.012706 0.0126065 0.012457 0.0123107 0.0121469 0.0119687 0.0117858 0.0115099 0.0112489 0.0109858 0.0107239 0.0103385 0.00994741 0.00958632 0.00924597 0.00892232 0.00861346 0.00831854 0.00803719 0.0077693 0.00751485 0.00727387 0.00704637 0.00683237 0.00663185 0.00644478 0.00627111 0.00611079 0.00596373 0.00582985 0.00570908 0.00560131 0.00550646 0.00542444 0.00535519 0.00529863 0.0052547 0.00522335 0.00520456 0.0051983 
0.00395709 0.00396193 0.00397647 0.00400075 0.00403481 0.00407875 0.00413265 0.00419666 0.0042709 0.00435556 0.00445081 0.00455687 0.00467396 0.00480233 0.00494224 0.00509395 0.00525776 0.00543396 0.00562287 0.00582479 0.00604007 0.00626907 0.00651218 0.00676986 0.00704267 0.00733127 0.00763641 0.00795869 0.0082979 0.00865094 0.00900573 0.0092647 0.00946396 0.00966449 0.00992154 0.0101655 0.0104137 0.0106503 0.0108864 0.0111539 0.0114601 0.0117654 0.012035 0.0122491 0.0124105 0.0125116 0.012629 0.0128616 0.0130498 0.0131783 0.0133276 0.0133632 0.0133798 0.0134015 0.013408 0.0133506 0.0132932 0.0133216 0.013283 0.0131852 0.013035 0.0128341 0.0126486 0.0125033 0.0123436 0.0121671 0.0119747 0.0117673 0.0115212 0.0112634 0.0110003 0.0107347 0.0103992 0.0100238 0.00966724 0.00932675 0.00900057 0.00868788 0.00838842 0.00810224 0.00782947 0.00757027 0.00732475 0.007093 0.00687506 0.00667093 0.00648057 0.00630394 0.00614095 0.00599152 0.00585553 0.0057329 0.00562352 0.00552728 0.00544409 0.00537386 0.00531651 0.00527198 0.00524021 0.00522116 0.00521481 
0.00396688 0.00397176 0.0039864 0.00401086 0.00404517 0.00408943 0.00414374 0.00420822 0.00428304 0.00436835 0.00446435 0.00457126 0.00468932 0.00481876 0.00495987 0.00511292 0.00527821 0.00545605 0.00564674 0.00585061 0.00606799 0.00629924 0.00654474 0.00680498 0.00708057 0.00737238 0.00768158 0.00800964 0.00835794 0.00872648 0.009028 0.00924562 0.00945978 0.00971103 0.00997651 0.0102172 0.01047 0.0107296 0.0109852 0.0112634 0.0116107 0.0119191 0.0121754 0.0123713 0.0125605 0.0127243 0.0129095 0.0131299 0.0133239 0.0134806 0.0135161 0.0136192 0.0136805 0.0137232 0.0137332 0.0136804 0.0136487 0.0136548 0.0135977 0.0134793 0.0132996 0.0130509 0.0127698 0.0126168 0.0124484 0.0122597 0.0120512 0.0118292 0.0115827 0.0113195 0.0110508 0.0107826 0.0104716 0.010113 0.00976388 0.00942472 0.00909616 0.00877898 0.00847394 0.00818172 0.00790285 0.00763771 0.00738656 0.00714957 0.00692679 0.00671824 0.00652387 0.00634363 0.0061774 0.00602508 0.00588654 0.00576167 0.00565034 0.00555242 0.0054678 0.00539639 0.00533809 0.00529283 0.00526055 0.00524119 0.00523474 
0.00397831 0.00398323 0.003998 0.00402266 0.00405727 0.0041019 0.00415668 0.00422173 0.0042972 0.00438327 0.00448015 0.00458805 0.00470722 0.00483792 0.00498043 0.00513505 0.00530207 0.00548182 0.0056746 0.00588075 0.00610057 0.0063344 0.00658258 0.00684555 0.00712391 0.00741862 0.00773129 0.00806451 0.00842225 0.00876265 0.00901391 0.00925449 0.00949939 0.00977567 0.0100185 0.0102781 0.0105483 0.0108276 0.0111141 0.0114394 0.0117851 0.0120962 0.0123625 0.0125797 0.0128171 0.0130394 0.0132609 0.0134746 0.0136719 0.0137997 0.0138964 0.0140113 0.0141104 0.0141714 0.0141843 0.0141266 0.014089 0.0140796 0.0140054 0.0138687 0.0136694 0.0134033 0.0130611 0.0128004 0.0126321 0.012431 0.0122036 0.011962 0.0117012 0.0114175 0.0111335 0.0108398 0.0105628 0.0102229 0.00988146 0.00954296 0.00921083 0.00888771 0.00857555 0.00827577 0.00798937 0.00771701 0.00745907 0.0072158 0.00698726 0.00677348 0.00657439 0.0063899 0.00621987 0.00606417 0.00592265 0.00579516 0.00568155 0.00558168 0.0054954 0.00542262 0.00536321 0.0053171 0.00528422 0.00526451 0.00525794 
0.00399132 0.00399629 0.0040112 0.00403609 0.00407103 0.00411609 0.0041714 0.00423708 0.0043133 0.00440024 0.00449811 0.00460713 0.00472757 0.00485969 0.0050038 0.00516018 0.00532918 0.0055111 0.00570628 0.00591504 0.00613768 0.00637447 0.00662567 0.00689157 0.00717258 0.0074695 0.00778401 0.00811927 0.00847896 0.00877202 0.00902432 0.00927588 0.0095304 0.0097964 0.010069 0.0103508 0.0106439 0.0109493 0.0112756 0.0116352 0.0119575 0.0122717 0.0125435 0.0128025 0.0130883 0.0133672 0.0136268 0.0138843 0.0141357 0.0142519 0.014361 0.0145292 0.0146482 0.0147128 0.0147239 0.0146673 0.0146298 0.0146014 0.0145097 0.0143574 0.0141446 0.0138729 0.0135486 0.0131854 0.0129405 0.0127166 0.0124576 0.012183 0.0118888 0.0115545 0.0112601 0.0109704 0.0106867 0.0103636 0.0100261 0.00968502 0.0093466 0.00901513 0.0086937 0.00838447 0.0080889 0.00780788 0.00754194 0.00729132 0.00705611 0.00683629 0.00663177 0.00644242 0.00626805 0.00610851 0.0059636 0.00583313 0.00571693 0.00561483 0.00552668 0.00545234 0.00539168 0.00534461 0.00531104 0.00529093 0.00528423 
0.00400582 0.00401084 0.00402591 0.00405106 0.00408637 0.00413191 0.00418781 0.0042542 0.00433125 0.00441915 0.00451811 0.00462838 0.00475023 0.00488393 0.0050298 0.00518816 0.00535935 0.00554371 0.0057416 0.00595333 0.00617919 0.00641941 0.00667412 0.00694337 0.00722713 0.00752559 0.00783984 0.00817445 0.00850003 0.00878607 0.00905151 0.00931173 0.00957254 0.00984277 0.0101381 0.010438 0.0107562 0.0110835 0.0114265 0.0117848 0.0121288 0.012453 0.012735 0.0130262 0.0133523 0.0136686 0.0139683 0.0142597 0.0145503 0.0147723 0.014951 0.0151482 0.0152592 0.0153194 0.0153314 0.0152942 0.0152916 0.0152238 0.0151128 0.0149467 0.0147218 0.0144424 0.0141243 0.0137464 0.013409 0.0131231 0.0128123 0.0124971 0.0121802 0.011823 0.0114795 0.0111894 0.0108784 0.0105471 0.0102033 0.00985391 0.00950509 0.009162 0.0088286 0.0085077 0.00820112 0.00790992 0.00763469 0.00737565 0.00713286 0.00690623 0.00669561 0.0065008 0.00632159 0.00615775 0.00600906 0.00587528 0.0057562 0.00565164 0.0055614 0.00548532 0.00542327 0.00537514 0.00534082 0.00532025 0.0053134 
0.00402174 0.00402682 0.00404205 0.00406749 0.0041032 0.00414927 0.00420581 0.00427297 0.00435093 0.00443988 0.00454004 0.00465167 0.00477504 0.00491046 0.00505826 0.00521877 0.00539237 0.00557942 0.00578031 0.00599538 0.00622494 0.00646919 0.00672818 0.00700166 0.00728898 0.00758896 0.00789964 0.00821714 0.00852762 0.00883619 0.00910124 0.0093655 0.009629 0.00989483 0.0102267 0.0105306 0.0108877 0.0112334 0.0115903 0.0119601 0.0123264 0.0126691 0.0129661 0.0132979 0.0136491 0.0139929 0.0143292 0.0146667 0.0150237 0.0152852 0.01548 0.0157122 0.0158488 0.0159205 0.0159625 0.0159746 0.0159977 0.0159344 0.0158154 0.0156407 0.0154042 0.0151077 0.0148216 0.014418 0.0139795 0.0136069 0.0132288 0.0128709 0.0125338 0.0121818 0.0118052 0.0114599 0.011119 0.0107712 0.0104141 0.0100508 0.00968695 0.00932842 0.00897999 0.00864497 0.00832542 0.00802249 0.00773669 0.0074682 0.00721695 0.00698276 0.0067654 0.0065646 0.00638007 0.00621152 0.00605868 0.00592128 0.00579907 0.00569181 0.00559929 0.00552132 0.00545775 0.00540845 0.00537331 0.00535226 0.00534524 
0.00403898 0.00404411 0.00405954 0.00408528 0.00412143 0.00416806 0.0042253 0.00429329 0.00437223 0.0044623 0.00456376 0.00467685 0.00480186 0.00493913 0.00508899 0.00525181 0.005428 0.00561796 0.00582212 0.00604089 0.00627464 0.00652365 0.00678798 0.00706726 0.00736038 0.007665 0.00797731 0.00829295 0.00861119 0.00889421 0.00917085 0.00943942 0.00970644 0.0100075 0.0103627 0.0107014 0.0110642 0.0114119 0.0117768 0.0121518 0.0125542 0.0129185 0.013276 0.0136583 0.0140047 0.014367 0.0147382 0.015121 0.0155398 0.0158637 0.0160712 0.0162956 0.016463 0.0165689 0.0166397 0.0166724 0.0166752 0.0166469 0.0165352 0.0163641 0.0161246 0.0158322 0.0155114 0.0150921 0.0145984 0.014144 0.0136808 0.0132911 0.0129139 0.0125374 0.0121384 0.01176 0.0113965 0.0110321 0.0106584 0.0102758 0.00989179 0.00951364 0.00914693 0.0087953 0.00846087 0.00814469 0.00784714 0.00756821 0.0073077 0.00706527 0.0068406 0.0066333 0.00644301 0.00626939 0.00611209 0.00597079 0.00584519 0.00573502 0.00564005 0.00556006 0.00549486 0.0054443 0.00540828 0.0053867 0.00537951 
0.00405743 0.00406263 0.00407825 0.00410433 0.00414094 0.00418817 0.00424616 0.00431504 0.00439502 0.0044863 0.00458912 0.00470376 0.00483052 0.00496973 0.00512177 0.00528704 0.00546596 0.005659 0.00586664 0.00608941 0.00632782 0.00658231 0.00685321 0.00714039 0.00744273 0.00775702 0.0080766 0.00839238 0.00870451 0.0090035 0.0092756 0.00954021 0.00982899 0.0101882 0.0105368 0.0108958 0.0112421 0.0116107 0.0119908 0.0124082 0.012845 0.0132508 0.0136685 0.0140526 0.0144208 0.0148014 0.0152132 0.0156442 0.0160783 0.0164767 0.0167637 0.016969 0.0171768 0.0173264 0.017422 0.0174622 0.0174488 0.0173772 0.0172627 0.0170806 0.0168393 0.0165531 0.0161693 0.0157411 0.0152626 0.0147822 0.0142563 0.0137695 0.0133867 0.0129473 0.0124989 0.0120857 0.011708 0.0113305 0.0109375 0.0105285 0.010118 0.00971571 0.00932757 0.00895707 0.00860607 0.00827535 0.00796501 0.00767481 0.00740432 0.00715307 0.00692057 0.00670634 0.00650993 0.0063309 0.00616884 0.00602339 0.0058942 0.00578096 0.00568338 0.00560123 0.0055343 0.00548241 0.00544545 0.00542331 0.00541594 
0.004077 0.00408227 0.0040981 0.00412453 0.00416163 0.0042095 0.00426827 0.0043381 0.00441918 0.00451172 0.00461598 0.00473225 0.00486083 0.00500209 0.0051564 0.0053242 0.00550596 0.00570218 0.00591345 0.0061404 0.00638372 0.00664422 0.00692273 0.00721997 0.0075359 0.00786775 0.00820486 0.00852177 0.00883836 0.00912128 0.00937116 0.00965498 0.00997082 0.0103344 0.0106814 0.0110521 0.011434 0.0118342 0.012255 0.012717 0.0131604 0.0136069 0.0140533 0.0144859 0.0148988 0.0152978 0.0157421 0.0162156 0.0166533 0.0170749 0.0174776 0.0177563 0.0180078 0.0181979 0.0183193 0.0183679 0.0183471 0.0182625 0.018118 0.0179099 0.017642 0.0173211 0.0169523 0.0165165 0.0160133 0.0154608 0.014905 0.0143357 0.0138984 0.0134346 0.0129438 0.0124636 0.0120589 0.0116744 0.0112578 0.0108069 0.0103617 0.009931 0.00951898 0.009128 0.00875925 0.00841303 0.00808911 0.00778697 0.00750595 0.00724538 0.00700464 0.00678312 0.00658025 0.00639554 0.0062285 0.00607869 0.00594573 0.00582924 0.00572893 0.00564452 0.00557576 0.00552249 0.00548454 0.00546181 0.00545424 
0.00409756 0.0041029 0.00411895 0.00414575 0.00418337 0.00423191 0.00429151 0.00436232 0.00444455 0.00453842 0.00464419 0.00476215 0.00489263 0.00503599 0.00519265 0.00536305 0.0055477 0.00574716 0.00596206 0.00619318 0.00644141 0.00670793 0.0069943 0.00730274 0.00763632 0.00799773 0.00832537 0.00861994 0.00891444 0.00918309 0.00946551 0.00977112 0.0101024 0.0104609 0.0108368 0.0112309 0.0116418 0.0120716 0.012521 0.0130046 0.0134936 0.0139839 0.0144732 0.0149506 0.0154048 0.0158508 0.016341 0.0168412 0.0173277 0.0177943 0.0182302 0.0186064 0.0189484 0.0191879 0.0193408 0.0194022 0.0193719 0.0192796 0.0191116 0.0188764 0.0185807 0.0182375 0.0178576 0.0173927 0.0168452 0.0161919 0.015496 0.0148969 0.0143717 0.0138675 0.0133764 0.0128898 0.0124168 0.0119785 0.0115481 0.0111015 0.0106145 0.0101537 0.00971722 0.00930532 0.00891832 0.00855611 0.00821813 0.00790359 0.00761163 0.00734139 0.00709208 0.00686297 0.00665341 0.00646279 0.00629057 0.00613623 0.00599935 0.0058795 0.00577635 0.00568958 0.00561894 0.00556421 0.00552524 0.00550191 0.00549413 
0.00411899 0.00412441 0.00414069 0.00416788 0.00420604 0.00425528 0.00431574 0.00438759 0.00447102 0.00456626 0.00467359 0.0047933 0.00492574 0.00507127 0.00523032 0.00540336 0.00559091 0.00579358 0.00601205 0.00624714 0.00649991 0.00677176 0.00706478 0.00738259 0.00773257 0.00808444 0.00837492 0.00867142 0.00896893 0.00926148 0.00956861 0.00989508 0.0102431 0.0106137 0.011008 0.0114246 0.0118631 0.012323 0.0128047 0.0133234 0.0138485 0.0143836 0.0149248 0.0154545 0.0159681 0.0164714 0.0170115 0.0175665 0.0181168 0.0186485 0.0191467 0.0195879 0.0200042 0.0203101 0.0205005 0.0205856 0.0205609 0.0204562 0.0202644 0.020002 0.0196741 0.019291 0.0188582 0.0182987 0.0176563 0.016917 0.0161938 0.0155132 0.0148642 0.0142707 0.0137383 0.0132315 0.0127095 0.0122446 0.0117981 0.0113596 0.0108621 0.0103767 0.0099182 0.00948628 0.00908126 0.00870298 0.00835073 0.00802356 0.0077204 0.00744023 0.00718213 0.00694524 0.00672879 0.0065321 0.00635455 0.00619556 0.00605464 0.00593134 0.00582526 0.00573607 0.00566349 0.00560727 0.00556724 0.00554328 0.0055353 
0.00414118 0.00414668 0.0041632 0.00419078 0.00422951 0.00427948 0.00434083 0.00441375 0.00449842 0.00459509 0.00470403 0.00482554 0.00495998 0.00510773 0.00526921 0.00544491 0.00563537 0.00584119 0.00606308 0.00630187 0.00655858 0.00683457 0.00713169 0.00745274 0.00780197 0.00813725 0.00843673 0.00874077 0.00904874 0.00935954 0.00968473 0.0100311 0.0103979 0.0107863 0.0111963 0.0116354 0.0121057 0.0126003 0.0131191 0.0136619 0.0142178 0.014802 0.0154109 0.0159936 0.0165827 0.0171612 0.0177538 0.0183893 0.0190229 0.01964 0.0202272 0.0207779 0.0212541 0.0216242 0.021868 0.0219813 0.0219748 0.0218344 0.0216007 0.0213125 0.0209451 0.0204929 0.0199313 0.0191828 0.0184197 0.0176536 0.0169535 0.0161569 0.0153672 0.0146573 0.0140522 0.0135351 0.0130186 0.0125297 0.0120596 0.0115949 0.0110975 0.010597 0.0101197 0.00966896 0.00924639 0.00885217 0.00848564 0.00814574 0.00783126 0.00754104 0.00727402 0.00702921 0.00680577 0.0066029 0.00641992 0.00625619 0.00611116 0.00598434 0.00587528 0.00578363 0.00570905 0.00565132 0.00561022 0.00558561 0.00557742 
0.00416399 0.00416957 0.00418634 0.00421434 0.00425364 0.00430436 0.00436665 0.00444066 0.00452662 0.00462475 0.00473535 0.00485872 0.00499521 0.00514521 0.00530916 0.00548755 0.0056809 0.00588983 0.00611501 0.00635723 0.0066174 0.00689659 0.00719607 0.00751726 0.00786195 0.00818824 0.00851045 0.00882349 0.00914317 0.00947105 0.00981303 0.0101806 0.0105682 0.0109767 0.011412 0.0118806 0.0123802 0.0129097 0.0134646 0.0140374 0.0146483 0.0152896 0.0159566 0.0165975 0.0172553 0.0179147 0.0185968 0.0193142 0.0200484 0.0207673 0.0214575 0.0221393 0.0227147 0.0231585 0.0234545 0.0235918 0.0235701 0.0233978 0.0231343 0.0228437 0.0224234 0.0218005 0.0209771 0.0201639 0.0192794 0.01847 0.0176179 0.0167949 0.0158623 0.0150779 0.0144158 0.0138504 0.0133427 0.0128274 0.012333 0.0118461 0.011338 0.0108188 0.0103222 0.00985263 0.00941256 0.00900247 0.00862169 0.00826907 0.00794326 0.00764296 0.00736696 0.0071142 0.0068837 0.00667461 0.00648616 0.00631765 0.00616847 0.00603809 0.00592602 0.00583187 0.00575529 0.00569601 0.00565382 0.00562857 0.00562016 