<?xml version="1.0"?>
<VTKFile type="StructuredGrid" version="0.1">
    <StructuredGrid WholeExtent="0 100 0 100 0 0">
        <Piece Extent="0 100 0 100 0 0">
            <Points>
                <DataArray type="Float64" NumberOfComponents="3" format="ascii">
-15 -15 0
-15 -14.7 0
-15 -14.4 0
-15 -14.1 0
-15 -13.8 0
-15 -13.5 0
-15 -13.2 0
-15 -12.9 0
-15 -12.6 0
-15 -12.3 0
-15 -12 0
-15 -11.7 0
-15 -11.4 0
-15 -11.1 0
-15 -10.8 0
-15 -10.5 0
-15 -10.2 0
-15 -9.9 0
-15 -9.6 0
-15 -9.3 0
-15 -9 0
-15 -8.7 0
-15 -8.4 0
-15 -8.1 0
-15 -7.8 0
-15 -7.5 0
-15 -7.2 0
-15 -6.9 0
-15 -6.6 0
-15 -6.3 0
-15 -6 0
-15 -5.7 0
-15 -5.4 0
-15 -5.1 0
-15 -4.8 0
-15 -4.5 0
-15 -4.2 0
-15 -3.9 0
-15 -3.6 0
-15 -3.3 0
-15 -3 0
-15 -2.7 0
-15 -2.4 0
-15 -2.1 0
-15 -1.8 0
-15 -1.5 0
-15 -1.2 0
-15 -0.9 0
-15 -0.6 0
-15 -0.3 0
-15 0 0
-15 0.3 0
-15 0.6 0
-15 0.9 0
-15 1.2 0
-15 1.5 0
-15 1.8 0
-15 2.1 0
-15 2.4 0
-15 2.7 0
-15 3 0
-15 3.3 0
-15 3.6 0
-15 3.9 0
-15 4.2 0
-15 4.5 0
-15 4.8 0
-15 5.1 0
-15 5.4 0
-15 5.7 0
-15 6 0
-15 6.3 0
-15 6.6 0
-15 6.9 0
-15 7.2 0
-15 7.5 0
-15 7.8 0
-15 8.1 0
-15 8.4 0
-15 8.7 0
-15 9 0
-15 9.3 0
-15 9.6 0
-15 9.9 0
-15 10.2 0
-15 10.5 0
-15 10.8 0
-15 11.1 0
-15 11.4 0
-15 11.7 0
-15 12 0
-15 12.3 0
-15 12.6 0
-15 12.9 0
-15 13.2 0
-15 13.5 0
-15 13.8 0
-15 14.1 0
-15 14.4 0
-15 14.7 0
-15 15 0
-14.7 -15 0
-14.7 -14.7 0
-14.7 -14.4 0
-14.7 -14.1 0
-14.7 -13.8 0
-14.7 -13.5 0
-14.7 -13.2 0
-14.7 -12.9 0
-14.7 -12.6 0
-14.7 -12.3 0
-14.7 -12 0
-14.7 -11.7 0
-14.7 -11.4 0
-14.7 -11.1 0
-14.7 -10.8 0
-14.7 -10.5 0
-14.7 -10.2 0
-14.7 -9.9 0
-14.7 -9.6 0
-14.7 -9.3 0
-14.7 -9 0
-14.7 -8.7 0
-14.7 -8.4 0
-14.7 -8.1 0
-14.7 -7.8 0
-14.7 -7.5 0
-14.7 -7.2 0
-14.7 -6.9 0
-14.7 -6.6 0
-14.7 -6.3 0
-14.7 -6 0
-14.7 -5.7 0
-14.7 -5.4 0
-14.7 -5.1 0
-14.7 -4.8 0
-14.7 -4.5 0
-14.7 -4.2 0
-14.7 -3.9 0
-14.7 -3.6 0
-14.7 -3.3 0
-14.7 -3 0
-14.7 -2.7 0
-14.7 -2.4 0
-14.7 -2.1 0
-14.7 -1.8 0
-14.7 -1.5 0
-14.7 -1.2 0
-14.7 -0.9 0
-14.7 -0.6 0
-14.7 -0.3 0
-14.7 0 0
-14.7 0.3 0
-14.7 0.6 0
-14.7 0.9 0
-14.7 1.2 0
-14.7 1.5 0
-14.7 1.8 0
-14.7 2.1 0
-14.7 2.4 0
-14.7 2.7 0
-14.7 3 0
-14.7 3.3 0
-14.7 3.6 0
-14.7 3.9 0
-14.7 4.2 0
-14.7 4.5 0
-14.7 4.8 0
-14.7 5.1 0
-14.7 5.4 0
-14.7 5.7 0
-14.7 6 0
-14.7 6.3 0
-14.7 6.6 0
-14.7 6.9 0
-14.7 7.2 0
-14.7 7.5 0
-14.7 7.8 0
-14.7 8.1 0
-14.7 8.4 0
-14.7 8.7 0
-14.7 9 0
-14.7 9.3 0
-14.7 9.6 0
-14.7 9.9 0
-14.7 10.2 0
-14.7 10.5 0
-14.7 10.8 0
-14.7 11.1 0
-14.7 11.4 0
-14.7 11.7 0
-14.7 12 0
-14.7 12.3 0
-14.7 12.6 0
-14.7 12.9 0
-14.7 13.2 0
-14.7 13.5 0
-14.7 13.8 0
-14.7 14.1 0
-14.7 14.4 0
-14.7 14.7 0
-14.7 15 0
-14.4 -15 0
-14.4 -14.7 0
-14.4 -14.4 0
-14.4 -14.1 0
-14.4 -13.8 0
-14.4 -13.5 0
-14.4 -13.2 0
-14.4 -12.9 0
-14.4 -12.6 0
-14.4 -12.3 0
-14.4 -12 0
-14.4 -11.7 0
-14.4 -11.4 0
-14.4 -11.1 0
-14.4 -10.8 0
-14.4 -10.5 0
-14.4 -10.2 0
-14.4 -9.9 0
-14.4 -9.6 0
-14.4 -9.3 0
-14.4 -9 0
-14.4 -8.7 0
-14.4 -8.4 0
-14.4 -8.1 0
-14.4 -7.8 0
-14.4 -7.5 0
-14.4 -7.2 0
-14.4 -6.9 0
-14.4 -6.6 0
-14.4 -6.3 0
-14.4 -6 0
-14.4 -5.7 0
-14.4 -5.4 0
-14.4 -5.1 0
-14.4 -4.8 0
-14.4 -4.5 0
-14.4 -4.2 0
-14.4 -3.9 0
-14.4 -3.6 0
-14.4 -3.3 0
-14.4 -3 0
-14.4 -2.7 0
-14.4 -2.4 0
-14.4 -2.1 0
-14.4 -1.8 0
-14.4 -1.5 0
-14.4 -1.2 0
-14.4 -0.9 0
-14.4 -0.6 0
-14.4 -0.3 0
-14.4 0 0
-14.4 0.3 0
-14.4 0.6 0
-14.4 0.9 0
-14.4 1.2 0
-14.4 1.5 0
-14.4 1.8 0
-14.4 2.1 0
-14.4 2.4 0
-14.4 2.7 0
-14.4 3 0
-14.4 3.3 0
-14.4 3.6 0
-14.4 3.9 0
-14.4 4.2 0
-14.4 4.5 0
-14.4 4.8 0
-14.4 5.1 0
-14.4 5.4 0
-14.4 5.7 0
-14.4 6 0
-14.4 6.3 0
-14.4 6.6 0
-14.4 6.9 0
-14.4 7.2 0
-14.4 7.5 0
-14.4 7.8 0
-14.4 8.1 0
-14.4 8.4 0
-14.4 8.7 0
-14.4 9 0
-14.4 9.3 0
-14.4 9.6 0
-14.4 9.9 0
-14.4 10.2 0
-14.4 10.5 0
-14.4 10.8 0
-14.4 11.1 0
-14.4 11.4 0
-14.4 11.7 0
-14.4 12 0
-14.4 12.3 0
-14.4 12.6 0
-14.4 12.9 0
-14.4 13.2 0
-14.4 13.5 0
-14.4 13.8 0
-14.4 14.1 0
-14.4 14.4 0
-14.4 14.7 0
-14.4 15 0
-14.1 -15 0
-14.1 -14.7 0
-14.1 -14.4 0
-14.1 -14.1 0
-14.1 -13.8 0
-14.1 -13.5 0
-14.1 -13.2 0
-14.1 -12.9 0
-14.1 -12.6 0
-14.1 -12.3 0
-14.1 -12 0
-14.1 -11.7 0
-14.1 -11.4 0
-14.1 -11.1 0
-14.1 -10.8 0
-14.1 -10.5 0
-14.1 -10.2 0
-14.1 -9.9 0
-14.1 -9.6 0
-14.1 -9.3 0
-14.1 -9 0
-14.1 -8.7 0
-14.1 -8.4 0
-14.1 -8.1 0
-14.1 -7.8 0
-14.1 -7.5 0
-14.1 -7.2 0
-14.1 -6.9 0
-14.1 -6.6 0
-14.1 -6.3 0
-14.1 -6 0
-14.1 -5.7 0
-14.1 -5.4 0
-14.1 -5.1 0
-14.1 -4.8 0
-14.1 -4.5 0
-14.1 -4.2 0
-14.1 -3.9 0
-14.1 -3.6 0
-14.1 -3.3 0
-14.1 -3 0
-14.1 -2.7 0
-14.1 -2.4 0
-14.1 -2.1 0
-14.1 -1.8 0
-14.1 -1.5 0
-14.1 -1.2 0
-14.1 -0.9 0
-14.1 -0.6 0
-14.1 -0.3 0
-14.1 0 0
-14.1 0.3 0
-14.1 0.6 0
-14.1 0.9 0
-14.1 1.2 0
-14.1 1.5 0
-14.1 1.8 0
-14.1 2.1 0
-14.1 2.4 0
-14.1 2.7 0
-14.1 3 0
-14.1 3.3 0
-14.1 3.6 0
-14.1 3.9 0
-14.1 4.2 0
-14.1 4.5 0
-14.1 4.8 0
-14.1 5.1 0
-14.1 5.4 0
-14.1 5.7 0
-14.1 6 0
-14.1 6.3 0
-14.1 6.6 0
-14.1 6.9 0
-14.1 7.2 0
-14.1 7.5 0
-14.1 7.8 0
-14.1 8.1 0
-14.1 8.4 0
-14.1 8.7 0
-14.1 9 0
-14.1 9.3 0
-14.1 9.6 0
-14.1 9.9 0
-14.1 10.2 0
-14.1 10.5 0
-14.1 10.8 0
-14.1 11.1 0
-14.1 11.4 0
-14.1 11.7 0
-14.1 12 0
-14.1 12.3 0
-14.1 12.6 0
-14.1 12.9 0
-14.1 13.2 0
-14.1 13.5 0
-14.1 13.8 0
-14.1 14.1 0
-14.1 14.4 0
-14.1 14.7 0
-14.1 15 0
-13.8 -15 0
-13.8 -14.7 0
-13.8 -14.4 0
-13.8 -14.1 0
-13.8 -13.8 0
-13.8 -13.5 0
-13.8 -13.2 0
-13.8 -12.9 0
-13.8 -12.6 0
-13.8 -12.3 0
-13.8 -12 0
-13.8 -11.7 0
-13.8 -11.4 0
-13.8 -11.1 0
-13.8 -10.8 0
-13.8 -10.5 0
-13.8 -10.2 0
-13.8 -9.9 0
-13.8 -9.6 0
-13.8 -9.3 0
-13.8 -9 0
-13.8 -8.7 0
-13.8 -8.4 0
-13.8 -8.1 0
-13.8 -7.8 0
-13.8 -7.5 0
-13.8 -7.2 0
-13.8 -6.9 0
-13.8 -6.6 0
-13.8 -6.3 0
-13.8 -6 0
-13.8 -5.7 0
-13.8 -5.4 0
-13.8 -5.1 0
-13.8 -4.8 0
-13.8 -4.5 0
-13.8 -4.2 0
-13.8 -3.9 0
-13.8 -3.6 0
-13.8 -3.3 0
-13.8 -3 0
-13.8 -2.7 0
-13.8 -2.4 0
-13.8 -2.1 0
-13.8 -1.8 0
-13.8 -1.5 0
-13.8 -1.2 0
-13.8 -0.9 0
-13.8 -0.6 0
-13.8 -0.3 0
-13.8 0 0
-13.8 0.3 0
-13.8 0.6 0
-13.8 0.9 0
-13.8 1.2 0
-13.8 1.5 0
-13.8 1.8 0
-13.8 2.1 0
-13.8 2.4 0
-13.8 2.7 0
-13.8 3 0
-13.8 3.3 0
-13.8 3.6 0
-13.8 3.9 0
-13.8 4.2 0
-13.8 4.5 0
-13.8 4.8 0
-13.8 5.1 0
-13.8 5.4 0
-13.8 5.7 0
-13.8 6 0
-13.8 6.3 0
-13.8 6.6 0
-13.8 6.9 0
-13.8 7.2 0
-13.8 7.5 0
-13.8 7.8 0
-13.8 8.1 0
-13.8 8.4 0
-13.8 8.7 0
-13.8 9 0
-13.8 9.3 0
-13.8 9.6 0
-13.8 9.9 0
-13.8 10.2 0
-13.8 10.5 0
-13.8 10.8 0
-13.8 11.1 0
-13.8 11.4 0
-13.8 11.7 0
-13.8 12 0
-13.8 12.3 0
-13.8 12.6 0
-13.8 12.9 0
-13.8 13.2 0
-13.8 13.5 0
-13.8 13.8 0
-13.8 14.1 0
-13.8 14.4 0
-13.8 14.7 0
-13.8 15 0
-13.5 -15 0
-13.5 -14.7 0
-13.5 -14.4 0
-13.5 -14.1 0
-13.5 -13.8 0
-13.5 -13.5 0
-13.5 -13.2 0
-13.5 -12.9 0
-13.5 -12.6 0
-13.5 -12.3 0
-13.5 -12 0
-13.5 -11.7 0
-13.5 -11.4 0
-13.5 -11.1 0
-13.5 -10.8 0
-13.5 -10.5 0
-13.5 -10.2 0
-13.5 -9.9 0
-13.5 -9.6 0
-13.5 -9.3 0
-13.5 -9 0
-13.5 -8.7 0
-13.5 -8.4 0
-13.5 -8.1 0
-13.5 -7.8 0
-13.5 -7.5 0
-13.5 -7.2 0
-13.5 -6.9 0
-13.5 -6.6 0
-13.5 -6.3 0
-13.5 -6 0
-13.5 -5.7 0
-13.5 -5.4 0
-13.5 -5.1 0
-13.5 -4.8 0
-13.5 -4.5 0
-13.5 -4.2 0
-13.5 -3.9 0
-13.5 -3.6 0
-13.5 -3.3 0
-13.5 -3 0
-13.5 -2.7 0
-13.5 -2.4 0
-13.5 -2.1 0
-13.5 -1.8 0
-13.5 -1.5 0
-13.5 -1.2 0
-13.5 -0.9 0
-13.5 -0.6 0
-13.5 -0.3 0
-13.5 0 0
-13.5 0.3 0
-13.5 0.6 0
-13.5 0.9 0
-13.5 1.2 0
-13.5 1.5 0
-13.5 1.8 0
-13.5 2.1 0
-13.5 2.4 0
-13.5 2.7 0
-13.5 3 0
-13.5 3.3 0
-13.5 3.6 0
-13.5 3.9 0
-13.5 4.2 0
-13.5 4.5 0
-13.5 4.8 0
-13.5 5.1 0
-13.5 5.4 0
-13.5 5.7 0
-13.5 6 0
-13.5 6.3 0
-13.5 6.6 0
-13.5 6.9 0
-13.5 7.2 0
-13.5 7.5 0
-13.5 7.8 0
-13.5 8.1 0
-13.5 8.4 0
-13.5 8.7 0
-13.5 9 0
-13.5 9.3 0
-13.5 9.6 0
-13.5 9.9 0
-13.5 10.2 0
-13.5 10.5 0
-13.5 10.8 0
-13.5 11.1 0
-13.5 11.4 0
-13.5 11.7 0
-13.5 12 0
-13.5 12.3 0
-13.5 12.6 0
-13.5 12.9 0
-13.5 13.2 0
-13.5 13.5 0
-13.5 13.8 0
-13.5 14.1 0
-13.5 14.4 0
-13.5 14.7 0
-13.5 15 0
-13.2 -15 0
-13.2 -14.7 0
-13.2 -14.4 0
-13.2 -14.1 0
-13.2 -13.8 0
-13.2 -13.5 0
-13.2 -13.2 0
-13.2 -12.9 0
-13.2 -12.6 0
-13.2 -12.3 0
-13.2 -12 0
-13.2 -11.7 0
-13.2 -11.4 0
-13.2 -11.1 0
-13.2 -10.8 0
-13.2 -10.5 0
-13.2 -10.2 0
-13.2 -9.9 0
-13.2 -9.6 0
-13.2 -9.3 0
-13.2 -9 0
-13.2 -8.7 0
-13.2 -8.4 0
-13.2 -8.1 0
-13.2 -7.8 0
-13.2 -7.5 0
-13.2 -7.2 0
-13.2 -6.9 0
-13.2 -6.6 0
-13.2 -6.3 0
-13.2 -6 0
-13.2 -5.7 0
-13.2 -5.4 0
-13.2 -5.1 0
-13.2 -4.8 0
-13.2 -4.5 0
-13.2 -4.2 0
-13.2 -3.9 0
-13.2 -3.6 0
-13.2 -3.3 0
-13.2 -3 0
-13.2 -2.7 0
-13.2 -2.4 0
-13.2 -2.1 0
-13.2 -1.8 0
-13.2 -1.5 0
-13.2 -1.2 0
-13.2 -0.9 0
-13.2 -0.6 0
-13.2 -0.3 0
-13.2 0 0
-13.2 0.3 0
-13.2 0.6 0
-13.2 0.9 0
-13.2 1.2 0
-13.2 1.5 0
-13.2 1.8 0
-13.2 2.1 0
-13.2 2.4 0
-13.2 2.7 0
-13.2 3 0
-13.2 3.3 0
-13.2 3.6 0
-13.2 3.9 0
-13.2 4.2 0
-13.2 4.5 0
-13.2 4.8 0
-13.2 5.1 0
-13.2 5.4 0
-13.2 5.7 0
-13.2 6 0
-13.2 6.3 0
-13.2 6.6 0
-13.2 6.9 0
-13.2 7.2 0
-13.2 7.5 0
-13.2 7.8 0
-13.2 8.1 0
-13.2 8.4 0
-13.2 8.7 0
-13.2 9 0
-13.2 9.3 0
-13.2 9.6 0
-13.2 9.9 0
-13.2 10.2 0
-13.2 10.5 0
-13.2 10.8 0
-13.2 11.1 0
-13.2 11.4 0
-13.2 11.7 0
-13.2 12 0
-13.2 12.3 0
-13.2 12.6 0
-13.2 12.9 0
-13.2 13.2 0
-13.2 13.5 0
-13.2 13.8 0
-13.2 14.1 0
-13.2 14.4 0
-13.2 14.7 0
-13.2 15 0
-12.9 -15 0
-12.9 -14.7 0
-12.9 -14.4 0
-12.9 -14.1 0
-12.9 -13.8 0
-12.9 -13.5 0
-12.9 -13.2 0
-12.9 -12.9 0
-12.9 -12.6 0
-12.9 -12.3 0
-12.9 -12 0
-12.9 -11.7 0
-12.9 -11.4 0
-12.9 -11.1 0
-12.9 -10.8 0
-12.9 -10.5 0
-12.9 -10.2 0
-12.9 -9.9 0
-12.9 -9.6 0
-12.9 -9.3 0
-12.9 -9 0
-12.9 -8.7 0
-12.9 -8.4 0
-12.9 -8.1 0
-12.9 -7.8 0
-12.9 -7.5 0
-12.9 -7.2 0
-12.9 -6.9 0
-12.9 -6.6 0
-12.9 -6.3 0
-12.9 -6 0
-12.9 -5.7 0
-12.9 -5.4 0
-12.9 -5.1 0
-12.9 -4.8 0
-12.9 -4.5 0
-12.9 -4.2 0
-12.9 -3.9 0
-12.9 -3.6 0
-12.9 -3.3 0
-12.9 -3 0
-12.9 -2.7 0
-12.9 -2.4 0
-12.9 -2.1 0
-12.9 -1.8 0
-12.9 -1.5 0
-12.9 -1.2 0
-12.9 -0.9 0
-12.9 -0.6 0
-12.9 -0.3 0
-12.9 0 0
-12.9 0.3 0
-12.9 0.6 0
-12.9 0.9 0
-12.9 1.2 0
-12.9 1.5 0
-12.9 1.8 0
-12.9 2.1 0
-12.9 2.4 0
-12.9 2.7 0
-12.9 3 0
-12.9 3.3 0
-12.9 3.6 0
-12.9 3.9 0
-12.9 4.2 0
-12.9 4.5 0
-12.9 4.8 0
-12.9 5.1 0
-12.9 5.4 0
-12.9 5.7 0
-12.9 6 0
-12.9 6.3 0
-12.9 6.6 0
-12.9 6.9 0
-12.9 7.2 0
-12.9 7.5 0
-12.9 7.8 0
-12.9 8.1 0
-12.9 8.4 0
-12.9 8.7 0
-12.9 9 0
[...]
            <PointData>
                <DataArray type="Float64" Name="c1" format="ascii">
0.00304682 0.00305009 0.0030599 0.00307625 0.00309912 0.00312849 0.00316434 0.00320665 0.00325537 0.00331046 0.00337186 0.00343951 0.00351334 0.00359326 0.00367916 0.00377093 0.00386844 0.00397152 0.00408001 0.00419371 0.0043124 0.00443584 0.00456374 0.00469581 0.00483172 0.00497109 0.00511352 0.00525858 0.0054058 0.00555465 0.00570458 0.00585502 0.00600533 0.00615486 0.00630291 0.00644877 0.00659168 0.00673088 0.00686559 0.00699504 0.00711844 0.00723504 0.00734409 0.00744487 0.00753673 0.00761903 0.00769123 0.00775282 0.0078034 0.00784261 0.00787022 0.00788605 0.00789004 0.00788219 0.00786262 0.00783152 0.00778916 0.00773591 0.0076722 0.00759852 0.00751543 0.00742354 0.0073235 0.00721601 0.00710178 0.00698155 0.00685608 0.00672611 0.00659242 0.00645574 0.00631681 0.00617636 0.00603508 0.00589364 0.00575268 0.0056128 0.0054746 0.00533861 0.00520534 0.00507527 0.00494883 0.00482643 0.00470844 0.00459521 0.00448705 0.00438423 0.00428702 0.00419565 0.00411032 0.00403121 0.00395849 0.0038923 0.00383276 0.00377999 0.00373408 0.00369511 0.00366313 0.00363821 0.00362038 0.00360967 0.0036061 
0.00304864 0.00305191 0.00306175 0.00307812 0.00310103 0.00313046 0.00316638 0.00320877 0.00325758 0.00331277 0.00337429 0.00344208 0.00351606 0.00359614 0.00368223 0.0037742 0.00387191 0.00397523 0.00408397 0.00419794 0.00431692 0.00444067 0.00456891 0.00470134 0.00483762 0.00497739 0.00512025 0.00526575 0.00541343 0.00556277 0.00571321 0.00586418 0.00601504 0.00616513 0.00631375 0.00646018 0.00660367 0.00674345 0.00687873 0.00700874 0.00713269 0.00724981 0.00735935 0.00746059 0.00755286 0.00763555 0.00770807 0.00776994 0.00782073 0.00786011 0.00788782 0.0079037 0.00790767 0.00789975 0.00788004 0.00784875 0.00780616 0.00775262 0.00768857 0.00761451 0.00753101 0.00743867 0.00733816 0.00723016 0.00711541 0.00699465 0.00686864 0.00673812 0.00660388 0.00646665 0.00632719 0.0061862 0.0060444 0.00590245 0.005761 0.00562065 0.005482 0.00534557 0.00521189 0.00508142 0.00495461 0.00483186 0.00471355 0.00460001 0.00449156 0.00438848 0.00429103 0.00419943 0.00411389 0.00403459 0.0039617 0.00389536 0.00383569 0.0037828 0.00373679 0.00369773 0.00366569 0.00364071 0.00362284 0.00361211 0.00360853 
0.00305409 0.00305739 0.00306727 0.00308374 0.00310677 0.00313636 0.00317248 0.00321511 0.0032642 0.00331971 0.00338159 0.00344978 0.00352421 0.00360479 0.00369141 0.00378397 0.00388233 0.00398635 0.00409585 0.00421063 0.00433049 0.00445517 0.0045844 0.0047179 0.00485531 0.00499628 0.00514041 0.00528725 0.00543633 0.00558714 0.00573911 0.00589166 0.00604416 0.00619593 0.00634626 0.00649443 0.00663967 0.00678119 0.00691821 0.00704991 0.0071755 0.00729418 0.00740521 0.00750783 0.00760137 0.00768518 0.00775869 0.00782139 0.00787284 0.00791272 0.00794074 0.00795675 0.00796067 0.00795253 0.00793242 0.00790057 0.00785725 0.00780284 0.00773777 0.00766258 0.00757782 0.00748413 0.00738218 0.00727268 0.00715637 0.00703401 0.00690635 0.00677419 0.00663829 0.00649942 0.00635833 0.00621574 0.00607237 0.0059289 0.00578597 0.00564421 0.00550419 0.00536646 0.00523153 0.00509988 0.00497196 0.00484816 0.00472886 0.0046144 0.00450509 0.00440121 0.00430302 0.00421075 0.00412459 0.00404473 0.00397133 0.00390453 0.00384446 0.00379122 0.0037449 0.00370559 0.00367333 0.0036482 0.00363022 0.00361942 0.00361582 
0.00306316 0.00306648 0.00307646 0.00309307 0.00311632 0.00314618 0.00318263 0.00322565 0.0032752 0.00333124 0.00339372 0.00346258 0.00353776 0.00361916 0.00370668 0.00380023 0.00389967 0.00400485 0.0041156 0.00423174 0.00435305 0.00447929 0.0046102 0.00474547 0.00488477 0.00502775 0.00517399 0.00532306 0.00547449 0.00562775 0.00578229 0.0059375 0.00609274 0.00624732 0.00640053 0.00655162 0.00669979 0.00684424 0.00698415 0.0071187 0.00724704 0.00736837 0.00748188 0.00758683 0.00768249 0.0077682 0.00784337 0.00790746 0.00796003 0.00800073 0.00802928 0.00804552 0.00804936 0.00804084 0.00802007 0.00798727 0.00794273 0.00788685 0.00782008 0.00774297 0.00765611 0.00756015 0.00745579 0.00734376 0.00722482 0.00709975 0.00696936 0.00683442 0.00669575 0.00655411 0.00641029 0.00626502 0.00611903 0.00597301 0.00582761 0.00568346 0.00554116 0.00540125 0.00526424 0.00513063 0.00500084 0.00487529 0.00475434 0.00463835 0.00452761 0.0044224 0.00432298 0.00422958 0.00414238 0.00406159 0.00398734 0.00391978 0.00385904 0.00380521 0.00375839 0.00371865 0.00368605 0.00366065 0.00364247 0.00363156 0.00362792 
0.0030758 0.00307916 0.00308926 0.00310608 0.00312962 0.00315986 0.00319677 0.00324035 0.00329054 0.00334733 0.00341064 0.00348044 0.00355666 0.00363921 0.003728 0.00382293 0.00392387 0.00403067 0.00414319 0.00426122 0.00438457 0.004513 0.00464624 0.004784 0.00492596 0.00507175 0.00522097 0.00537318 0.00552791 0.00568462 0.00584276 0.00600172 0.00616083 0.00631939 0.00647666 0.00663187 0.00678419 0.00693279 0.00707681 0.00721538 0.00734762 0.00747269 0.00758974 0.00769798 0.00779666 0.00788507 0.00796259 0.00802866 0.00808282 0.00812469 0.00815399 0.00817055 0.00817429 0.00816523 0.00814351 0.00810936 0.00806309 0.00800513 0.00793595 0.00785612 0.00776628 0.0076671 0.00755931 0.00744369 0.00732103 0.00719214 0.00705785 0.006919 0.0067764 0.00663086 0.00648318 0.00633412 0.00618442 0.0060348 0.00588592 0.00573843 0.00559291 0.00544993 0.00531001 0.00517362 0.00504122 0.00491321 0.00478996 0.0046718 0.00455905 0.00445199 0.00435085 0.00425586 0.00416722 0.00408511 0.00400968 0.00394106 0.00387937 0.00382472 0.0037772 0.00373686 0.00370378 0.003678 0.00365957 0.00364849 0.0036448 
0.00309196 0.00309538 0.00310563 0.00312272 0.00314663 0.00317735 0.00321487 0.00325915 0.00331017 0.0033679 0.00343229 0.0035033 0.00358085 0.00366487 0.00375529 0.00385199 0.00395485 0.00406375 0.00417853 0.00429901 0.00442498 0.00455622 0.00469247 0.00483344 0.00497882 0.00512823 0.00528129 0.00543756 0.00559656 0.00575775 0.00592056 0.00608437 0.00624851 0.00641224 0.0065748 0.00673537 0.0068931 0.00704712 0.0071965 0.00734032 0.00747767 0.00760763 0.00772931 0.00784186 0.00794448 0.00803642 0.00811702 0.00818568 0.00824192 0.00828533 0.00831562 0.00833261 0.0083362 0.00832646 0.0083035 0.00826759 0.00821906 0.00815837 0.00808603 0.00800265 0.0079089 0.0078055 0.00769324 0.00757292 0.00744539 0.00731151 0.00717215 0.00702817 0.00688045 0.00672983 0.00657712 0.00642313 0.00626863 0.00611434 0.00596094 0.0058091 0.00565942 0.00551247 0.00536878 0.00522882 0.00509304 0.00496185 0.00483563 0.00471469 0.00459936 0.0044899 0.00438655 0.00428953 0.00419903 0.00411523 0.00403827 0.00396829 0.0039054 0.00384969 0.00380125 0.00376016 0.00372646 0.0037002 0.00368142 0.00367014 0.00366638 
0.00311157 0.00311506 0.00312551 0.00314292 0.00316728 0.00319859 0.00323683 0.00328198 0.00333401 0.00339289 0.00345859 0.00353106 0.00361024 0.00369606 0.00378845 0.00388732 0.00399254 0.00410399 0.00422153 0.00434499 0.00447417 0.00460885 0.00474879 0.00489369 0.00504326 0.00519713 0.00535492 0.00551617 0.00568042 0.00584713 0.00601571 0.00618552 0.00635587 0.00652601 0.00669512 0.00686236 0.00702683 0.00718757 0.00734363 0.00749402 0.00763773 0.0077738 0.00790126 0.00801919 0.00812673 0.00822309 0.00830754 0.00837946 0.0084383 0.00848364 0.00851518 0.0085327 0.00853614 0.00852553 0.00850103 0.00846292 0.00841158 0.00834748 0.00827119 0.00818337 0.00808474 0.00797608 0.00785822 0.00773203 0.00759843 0.00745832 0.00731263 0.00716228 0.00700819 0.00685124 0.0066923 0.0065322 0.00637174 0.00621167 0.0060527 0.0058955 0.00574069 0.00558884 0.0054405 0.00529615 0.00515622 0.00502114 0.00489127 0.00476693 0.00464843 0.00453603 0.00442997 0.00433047 0.0042377 0.00415184 0.00407302 0.00400137 0.00393701 0.00388001 0.00383047 0.00378845 0.00375399 0.00372715 0.00370795 0.00369643 0.00369258 
0.00313456 0.00313812 0.00314879 0.00316659 0.00319149 0.00322349 0.00326258 0.00330874 0.00336196 0.0034222 0.00348944 0.00356363 0.00364473 0.00373268 0.0038274 0.00392881 0.0040368 0.00415127 0.00427208 0.00439905 0.00453203 0.00467078 0.00481508 0.00496465 0.00511919 0.00527835 0.00544175 0.00560895 0.00577946 0.00595275 0.00612823 0.00630522 0.00648303 0.00666085 0.00683786 0.00701313 0.00718571 0.0073546 0.00751873 0.00767705 0.00782848 0.00797195 0.00810641 0.00823088 0.0083444 0.00844612 0.00853526 0.00861113 0.00867314 0.00872085 0.00875391 0.00877211 0.00877536 0.00876372 0.00873737 0.0086966 0.00864184 0.00857361 0.00849253 0.00839932 0.00829476 0.0081797 0.00805505 0.00792175 0.00778078 0.00763313 0.00747978 0.00732173 0.00715995 0.00699538 0.00682893 0.00666148 0.00649387 0.00632686 0.00616121 0.0059976 0.00583666 0.00567899 0.00552511 0.00537552 0.00523067 0.00509096 0.00495676 0.00482839 0.00470614 0.00459027 0.00448101 0.00437857 0.00428312 0.00419482 0.00411381 0.0040402 0.00397409 0.00391558 0.00386473 0.00382161 0.00378627 0.00375874 0.00373905 0.00372723 0.00372329 
0.00316082 0.00316446 0.0031754 0.00319363 0.00321914 0.00325194 0.00329201 0.00333934 0.00339391 0.00345572 0.00352472 0.0036009 0.0036842 0.00377458 0.00387198 0.00397632 0.00408751 0.00420545 0.00433002 0.00446106 0.0045984 0.00474186 0.0048912 0.00504618 0.00520648 0.00537178 0.0055417 0.0057158 0.00589361 0.00607459 0.00625812 0.00644353 0.00663008 0.00681695 0.00700324 0.00718799 0.00737017 0.00754868 0.00772239 0.00789013 0.00805072 0.00820298 0.00834578 0.00847802 0.00859866 0.00870677 0.0088015 0.00888209 0.00894791 0.00899846 0.00903337 0.00905239 0.00905545 0.00904261 0.00901406 0.00897014 0.00891132 0.00883818 0.0087514 0.00865177 0.00854015 0.00841748 0.00828474 0.00814297 0.00799324 0.00783662 0.00767419 0.00750701 0.00733613 0.00716255 0.00698725 0.00681116 0.00663513 0.00646 0.00628652 0.00611541 0.00594732 0.00578284 0.00562251 0.00546684 0.00531627 0.00517119 0.00503197 0.00489893 0.00477234 0.00465246 0.0045395 0.00443367 0.00433513 0.00424403 0.00416048 0.00408462 0.00401651 0.00395626 0.00390391 0.00385953 0.00382316 0.00379484 0.00377459 0.00376244 0.00375838 
0.00319023 0.00319398 0.00320521 0.00322393 0.00325013 0.00328382 0.00332499 0.00337364 0.00342974 0.0034933 0.0035643 0.00364271 0.0037285 0.00382163 0.00392205 0.0040297 0.00414451 0.00426637 0.00439519 0.00453083 0.00467313 0.00482193 0.004977 0.0051381 0.00530497 0.00547726 0.00565462 0.00583663 0.0060228 0.00621259 0.00640538 0.00660049 0.00679714 0.00699446 0.00719152 0.00738729 0.00758064 0.00777039 0.00795529 0.00813405 0.00830537 0.00846796 0.00862053 0.00876189 0.0088909 0.00900653 0.00910784 0.00919401 0.00926435 0.00931828 0.0093554 0.00937545 0.00937832 0.0093641 0.009333 0.0092854 0.00922183 0.00914292 0.00904945 0.00894227 0.00882235 0.00869072 0.00854847 0.00839676 0.00823674 0.00806961 0.00789654 0.0077187 0.0075372 0.00735314 0.00716756 0.00698142 0.00679567 0.00661114 0.00642864 0.0062489 0.00607259 0.00590031 0.0057326 0.00556998 0.00541287 0.00526168 0.00511674 0.00497838 0.00484686 0.00472243 0.00460529 0.00449561 0.00439357 0.00429929 0.00421289 0.00413447 0.00406411 0.00400188 0.00394784 0.00390204 0.00386452 0.00383531 0.00381442 0.00380189 0.00379771 
0.00322269 0.00322654 0.0032381 0.00325736 0.00328433 0.00331901 0.0033614 0.0034115 0.00346931 0.00353482 0.00360803 0.00368892 0.00377747 0.00387365 0.00397744 0.00408877 0.0042076 0.00433383 0.0044674 0.00460817 0.00475601 0.00491077 0.00507226 0.00524024 0.00541447 0.00559463 0.00578037 0.00597128 0.0061669 0.00636667 0.00656998 0.00677612 0.00698428 0.00719356 0.00740297 0.00761139 0.00781762 0.00802035 0.0082182 0.00840975 0.00859353 0.00876809 0.00893202 0.00908399 0.00922274 0.00934714 0.00945614 0.00954886 0.00962451 0.00968246 0.00972224 0.00974354 0.00974627 0.00973048 0.00969645 0.0096446 0.00957551 0.0094899 0.00938863 0.00927266 0.00914307 0.00900099 0.00884766 0.00868436 0.00851238 0.00833304 0.00814764 0.00795744 0.00776369 0.00756755 0.00737014 0.0071725 0.00697561 0.00678036 0.00658759 0.00639804 0.0062124 0.00603128 0.00585524 0.00568477 0.0055203 0.00536222 0.00521087 0.00506655 0.00492951 0.00479998 0.00467816 0.00456419 0.00445824 0.00436042 0.00427084 0.00418957 0.0041167 0.00405227 0.00399635 0.00394898 0.00391017 0.00387997 0.00385838 0.00384542 0.0038411 
0.00325804 0.00326201 0.00327392 0.00329378 0.00332159 0.00335736 0.00340108 0.00345278 0.00351245 0.0035801 0.00365573 0.00373934 0.00383092 0.00393046 0.00403794 0.00415332 0.00427657 0.00440763 0.00454641 0.00469285 0.00484681 0.00500816 0.00517674 0.00535235 0.00553475 0.00572365 0.00591873 0.00611958 0.00632576 0.00653672 0.00675184 0.0069704 0.00719157 0.0074144 0.00763784 0.00786069 0.00808163 0.00829924 0.00851198 0.00871824 0.00891639 0.00910478 0.00928183 0.00944605 0.00959606 0.00973061 0.00984857 0.00994894 0.0100308 0.0100936 0.0101365 0.0101594 0.010162 0.0101445 0.0101071 0.0100504 0.00997496 0.00988161 0.00977131 0.00964516 0.00950434 0.00935015 0.00918397 0.00900724 0.00882142 0.00862797 0.00842836 0.00822397 0.00801616 0.00780622 0.00759532 0.00738461 0.00717509 0.00696772 0.00676335 0.00656276 0.00636664 0.00617563 0.00599026 0.00581102 0.00563835 0.00547262 0.00531414 0.00516321 0.00502005 0.00488489 0.00475788 0.00463919 0.00452892 0.0044272 0.00433411 0.00424971 0.00417407 0.00410724 0.00404925 0.00400014 0.00395993 0.00392863 0.00390627 0.00389285 0.00388837 
0.00329613 0.00330023 0.00331253 0.00333303 0.00336175 0.00339869 0.00344387 0.00349729 0.00355898 0.00362895 0.00370721 0.00379378 0.00388865 0.00399184 0.00410334 0.00422313 0.0043512 0.0044875 0.00463199 0.00478461 0.00494526 0.00511383 0.00529019 0.00547417 0.00566555 0.00586408 0.00606945 0.0062813 0.00649918 0.00672257 0.00695084 0.00718328 0.00741902 0.00765709 0.00789635 0.00813554 0.00837321 0.00860779 0.00883755 0.00906069 0.00927533 0.00947962 0.00967174 0.00985004 0.010013 0.0101593 0.0102876 0.0103969 0.0104862 0.0105546 0.0106014 0.0106262 0.0106289 0.0106095 0.0105683 0.010506 0.0104232 0.010321 0.0102003 0.0100623 0.00990854 0.00974034 0.0095593 0.00936706 0.00916527 0.00895561 0.00873968 0.00851907 0.00829524 0.0080696 0.00784343 0.00761794 0.00739421 0.00717322 0.00695587 0.00674296 0.00653518 0.00633316 0.00613744 0.00594852 0.00576679 0.00559261 0.00542629 0.00526809 0.00511823 0.00497688 0.00484421 0.00472033 0.00460536 0.00449939 0.00440246 0.00431466 0.00423601 0.00416655 0.00410631 0.00405532 0.00401357 0.0039811 0.00395789 0.00394397 0.00393933 
0.00333679 0.00334103 0.00335374 0.00337494 0.00340463 0.00344284 0.00348957 0.00354486 0.00360872 0.00368119 0.00376228 0.00385202 0.00395045 0.00405756 0.00417339 0.00429794 0.00443121 0.00457319 0.00472385 0.00488316 0.00505106 0.00522747 0.00541229 0.00560537 0.00580655 0.00601559 0.00623224 0.00645614 0.00668689 0.00692398 0.0071668 0.00741462 0.00766658 0.00792167 0.00817869 0.00843628 0.00869287 0.00894673 0.00919592 0.00943836 0.00967191 0.00989441 0.0101038 0.0102982 0.010476 0.0106358 0.0107762 0.0108959 0.0109939 0.0110691 0.0111207 0.011148 0.0111508 0.0111293 0.0110839 0.0110151 0.010924 0.0108115 0.0106788 0.0105273 0.0103585 0.0101741 0.00997585 0.00976571 0.00954555 0.00931726 0.00908268 0.00884356 0.00860154 0.00835815 0.00811477 0.00787269 0.00763304 0.00739687 0.00716508 0.00693849 0.0067178 0.00650364 0.00629655 0.00609697 0.00590531 0.0057219 0.00554702 0.0053809 0.00522373 0.00507567 0.00493684 0.00480736 0.00468729 0.0045767 0.00447565 0.00438416 0.00430226 0.00422997 0.00416731 0.00411428 0.00407088 0.00403713 0.00401302 0.00399856 0.00399374 
0.00337984 0.00338422 0.00339738 0.00341932 0.00345005 0.0034896 0.003538 0.00359527 0.00366145 0.00373658 0.00382069 0.00391384 0.00401605 0.00412737 0.00424784 0.00437748 0.00451632 0.00466438 0.00482167 0.00498818 0.00516388 0.00534873 0.00554267 0.0057456 0.00595738 0.00617783 0.00640673 0.00664376 0.00688856 0.00714065 0.00739944 0.00766423 0.00793413 0.00820811 0.00848494 0.00876317 0.0090411 0.0093168 0.00958811 0.00985263 0.0101079 0.0103512 0.0105804 0.0107932 0.010988 0.0111632 0.0113175 0.0114495 0.011558 0.0116415 0.0116989 0.0117293 0.0117326 0.0117087 0.0116584 0.0115823 0.0114816 0.0113572 0.0112107 0.0110435 0.0108574 0.0106542 0.0104361 0.0102053 0.00996399 0.00971435 0.00945846 0.0091983 0.00893569 0.00867229 0.00840959 0.00814897 0.0078916 0.00763858 0.00739082 0.00714915 0.00691428 0.00668681 0.00646726 0.00625607 0.0060536 0.00586016 0.00567599 0.0055013 0.00533623 0.00518092 0.00503547 0.00489994 0.00477439 0.00465886 0.00455336 0.00445792 0.00437254 0.00429723 0.00423197 0.00417676 0.00413161 0.00409649 0.00407142 0.00405637 0.00405136 
0.00342508 0.00342962 0.00344325 0.00346597 0.0034978 0.00353878 0.00358893 0.00364831 0.00371694 0.00379489 0.00388221 0.00397896 0.00408519 0.00420098 0.00432637 0.00446143 0.00460621 0.00476076 0.00492511 0.0050993 0.00528334 0.00547723 0.00568095 0.00589444 0.00611762 0.00635037 0.00659249 0.00684373 0.00710378 0.00737219 0.00764842 0.00793178 0.00822142 0.00851628 0.00881511 0.00911638 0.00941828 0.0097187 0.0100152 0.010305 0.0105851 0.0108525 0.0111042 0.0113379 0.0115519 0.0117447 0.0119152 0.0120618 0.0121829 0.0122767 0.0123415 0.0123759 0.0123798 0.0123534 0.0122974 0.0122129 0.012101 0.0119631 0.0118006 0.0116152 0.0114089 0.011184 0.0109429 0.0106882 0.0104225 0.0101483 0.00986813 0.0095841 0.00929824 0.00901237 0.00872808 0.00844682 0.00816982 0.00789818 0.00763286 0.00737466 0.00712427 0.00688229 0.00664921 0.00642542 0.00621126 0.00600699 0.00581281 0.0056289 0.00545536 0.00529228 0.00513973 0.00499774 0.00486634 0.00474553 0.0046353 0.00453566 0.00444657 0.00436803 0.00430001 0.0042425 0.00419547 0.00415891 0.00413281 0.00411715 0.00411193 
0.00347232 0.00347702 0.00349114 0.00351468 0.00354767 0.00359015 0.00364215 0.00370374 0.00377495 0.00385588 0.00394657 0.00404712 0.0041576 0.0042781 0.00440869 0.00454948 0.00470053 0.00486194 0.00503378 0.00521612 0.00540902 0.00561253 0.00582666 0.00605143 0.0062868 0.0065327 0.00678902 0.00705555 0.00733204 0.0076181 0.00791326 0.00821685 0.00852807 0.00884588 0.00916901 0.0094959 0.00982466 0.010153 0.0104782 0.0107971 0.0111059 0.0114009 0.0116785 0.0119358 0.0121714 0.0123842 0.0125733 0.0127373 0.0128741 0.012981 0.0130552 0.0130949 0.0130996 0.01307 0.0130073 0.0129129 0.0127882 0.0126346 0.0124537 0.0122472 0.0120175 0.0117672 0.0114992 0.0112168 0.0109229 0.0106206 0.0103127 0.0100017 0.00968964 0.00937862 0.0090703 0.00876617 0.00846751 0.00817543 0.00789087 0.00761463 0.00734739 0.00708968 0.00684196 0.00660459 0.00637784 0.00616195 0.00595705 0.00576327 0.00558069 0.00540933 0.00524923 0.00510038 0.00496277 0.00483636 0.00472113 0.00461703 0.00452403 0.00444208 0.00437115 0.0043112 0.00426219 0.00422411 0.00419692 0.00418062 0.00417518 
0.00352132 0.0035262 0.00354083 0.00356523 0.00359943 0.00364348 0.00369741 0.00376131 0.00383523 0.00391927 0.0040135 0.00411803 0.00423296 0.00435839 0.00449445 0.00464125 0.00479891 0.00496755 0.00514728 0.00533822 0.00554047 0.00575414 0.00597931 0.00621604 0.00646436 0.00672427 0.00699573 0.00727862 0.00757274 0.00787779 0.00819335 0.00851886 0.00885354 0.00919641 0.00954625 0.00990149 0.0102602 0.01062 0.010978 0.0113304 0.0116728 0.0120001 0.0123072 0.0125909 0.0128501 0.0130852 0.0132959 0.0134809 0.0136376 0.0137618 0.0138487 0.0138948 0.0139002 0.0138665 0.0137957 0.0136897 0.0135501 0.0133783 0.013176 0.0129451 0.012688 0.0124079 0.0121085 0.0117937 0.0114672 0.0111327 0.0107932 0.0104515 0.0101102 0.0097711 0.00943613 0.00910678 0.00878434 0.00846991 0.00816441 0.0078686 0.00758311 0.00730844 0.00704498 0.00679304 0.00655283 0.00632452 0.00610821 0.00590395 0.00571176 0.00553164 0.00536355 0.00520745 0.00506328 0.00493097 0.00481046 0.00470168 0.00460457 0.00451904 0.00444505 0.00438254 0.00433147 0.00429178 0.00426346 0.00424648 0.00424082 