<?xml version="1.0"?>
<VTKFile type="StructuredGrid" version="0.1">
    <StructuredGrid WholeExtent="0 100 0 100 0 0">
        <Piece Extent="0 100 0 100 0 0">
            <Points>
                <DataArray type="Float64" NumberOfComponents="3" format="ascii">
-15 -15 0
-15 -14.7 0
-15 -14.4 0
-15 -14.1 0
-15 -13.8 0
-15 -13.5 0
-15 -13.2 0
-15 -12.9 0
-15 -12.6 0
-15 -12.3 0
-15 -12 0
-15 -11.7 0
-15 -11.4 0
-15 -11.1 0
-15 -10.8 0
-15 -10.5 0
-15 -10.2 0
-15 -9.9 0
-15 -9.6 0
-15 -9.3 0
-15 -9 0
-15 -8.7 0
-15 -8.4 0
-15 -8.1 0
-15 -7.8 0
-15 -7.5 0
-15 -7.2 0
-15 -6.9 0
-15 -6.6 0
-15 -6.3 0
-15 -6 0
-15 -5.7 0
-15 -5.4 0
-15 -5.1 0
-15 -4.8 0
-15 -4.5 0
-15 -4.2 0
-15 -3.9 0
-15 -3.6 0
-15 -3.3 0
-15 -3 0
-15 -2.7 0
-15 -2.4 0
-15 -2.1 0
-15 -1.8 0
-15 -1.5 0
-15 -1.2 0
-15 -0.9 0
-15 -0.6 0
-15 -0.3 0
-15 0 0
-15 0.3 0
-15 0.6 0
-15 0.9 0
-15 1.2 0
-15 1.5 0
-15 1.8 0
-15 2.1 0
-15 2.4 0
-15 2.7 0
-15 3 0
-15 3.3 0
-15 3.6 0
-15 3.9 0
-15 4.2 0
-15 4.5 0
-15 4.8 0
-15 5.1 0
-15 5.4 0
-15 5.7 0
-15 6 0
-15 6.3 0
-15 6.6 0
-15 6.9 0
-15 7.2 0
-15 7.5 0
-15 7.8 0
-15 8.1 0
-15 8.4 0
-15 8.7 0
-15 9 0
-15 9.3 0
-15 9.6 0
-15 9.9 0
-15 10.2 0
-15 10.5 0
-15 10.8 0
-15 11.1 0
-15 11.4 0
-15 11.7 0
-15 12 0
-15 12.3 0
-15 12.6 0
-15 12.9 0
-15 13.2 0
-15 13.5 0
-15 13.8 0
-15 14.1 0
-15 14.4 0
-15 14.7 0
-15 15 0
-14.7 -15 0
-14.7 -14.7 0
-14.7 -14.4 0
-14.7 -14.1 0
-14.7 -13.8 0
-14.7 -13.5 0
-14.7 -13.2 0
-14.7 -12.9 0
-14.7 -12.6 0
-14.7 -12.3 0
-14.7 -12 0
-14.7 -11.7 0
-14.7 -11.4 0
-14.7 -11.1 0
-14.7 -10.8 0
-14.7 -10.5 0
-14.7 -10.2 0
-14.7 -9.9 0
-14.7 -9.6 0
-14.7 -9.3 0
-14.7 -9 0
-14.7 -8.7 0
-14.7 -8.4 0
-14.7 -8.1 0
-14.7 -7.8 0
-14.7 -7.5 0
-14.7 -7.2 0
-14.7 -6.9 0
-14.7 -6.6 0
-14.7 -6.3 0
-14.7 -6 0
-14.7 -5.7 0
-14.7 -5.4 0
-14.7 -5.1 0
-14.7 -4.8 0
-14.7 -4.5 0
-14.7 -4.2 0
-14.7 -3.9 0
-14.7 -3.6 0
-14.7 -3.3 0
-14.7 -3 0
-14.7 -2.7 0
-14.7 -2.4 0
-14.7 -2.1 0
-14.7 -1.8 0
-14.7 -1.5 0
-14.7 -1.2 0
-14.7 -0.9 0
-14.7 -0.6 0
-14.7 -0.3 0
-14.7 0 0
-14.7 0.3 0
-14.7 0.6 0
-14.7 0.9 0
-14.7 1.2 0
-14.7 1.5 0
-14.7 1.8 0
-14.7 2.1 0
-14.7 2.4 0
-14.7 2.7 0
-14.7 3 0
-14.7 3.3 0
-14.7 3.6 0
-14.7 3.9 0
-14.7 4.2 0
-14.7 4.5 0
-14.7 4.8 0
-14.7 5.1 0
-14.7 5.4 0
-14.7 5.7 0
-14.7 6 0
-14.7 6.3 0
-14.7 6.6 0
-14.7 6.9 0
-14.7 7.2 0
-14.7 7.5 0
-14.7 7.8 0
-14.7 8.1 0
-14.7 8.4 0
-14.7 8.7 0
-14.7 9 0
-14.7 9.3 0
-14.7 9.6 0
-14.7 9.9 0
-14.7 10.2 0
-14.7 10.5 0
-14.7 10.8 0
-14.7 11.1 0
-14.7 11.4 0
-14.7 11.7 0
-14.7 12 0
-14.7 12.3 0
-14.7 12.6 0
-14.7 12.9 0
-14.7 13.2 0
-14.7 13.5 0
-14.7 13.8 0
-14.7 14.1 0
-14.7 14.4 0
-14.7 14.7 0
-14.7 15 0
-14.4 -15 0
-14.4 -14.7 0
-14.4 -14.4 0
-14.4 -14.1 0
-14.4 -13.8 0
-14.4 -13.5 0
-14.4 -13.2 0
-14.4 -12.9 0
-14.4 -12.6 0
-14.4 -12.3 0
-14.4 -12 0
-14.4 -11.7 0
-14.4 -11.4 0
-14.4 -11.1 0
-14.4 -10.8 0
-14.4 -10.5 0
-14.4 -10.2 0
-14.4 -9.9 0
-14.4 -9.6 0
-14.4 -9.3 0
-14.4 -9 0
-14.4 -8.7 0
-14.4 -8.4 0
-14.4 -8.1 0
-14.4 -7.8 0
-14.4 -7.5 0
-14.4 -7.2 0
-14.4 -6.9 0
-14.4 -6.6 0
-14.4 -6.3 0
-14.4 -6 0
-14.4 -5.7 0
-14.4 -5.4 0
-14.4 -5.1 0
-14.4 -4.8 0
-14.4 -4.5 0
-14.4 -4.2 0
-14.4 -3.9 0
-14.4 -3.6 0
-14.4 -3.3 0
-14.4 -3 0
-14.4 -2.7 0
-14.4 -2.4 0
-14.4 -2.1 0
-14.4 -1.8 0
-14.4 -1.5 0
-14.4 -1.2 0
-14.4 -0.9 0
-14.4 -0.6 0
-14.4 -0.3 0
-14.4 0 0
-14.4 0.3 0
-14.4 0.6 0
-14.4 0.9 0
-14.4 1.2 0
-14.4 1.5 0
-14.4 1.8 0
-14.4 2.1 0
-14.4 2.4 0
-14.4 2.7 0
-14.4 3 0
-14.4 3.3 0
-14.4 3.6 0
-14.4 3.9 0
-14.4 4.2 0
-14.4 4.5 0
-14.4 4.8 0
-14.4 5.1 0
-14.4 5.4 0
-14.4 5.7 0
-14.4 6 0
-14.4 6.3 0
-14.4 6.6 0
-14.4 6.9 0
-14.4 7.2 0
-14.4 7.5 0
-14.4 7.8 0
-14.4 8.1 0
-14.4 8.4 0
-14.4 8.7 0
-14.4 9 0
-14.4 9.3 0
-14.4 9.6 0
-14.4 9.9 0
-14.4 10.2 0
-14.4 10.5 0
-14.4 10.8 0
-14.4 11.1 0
-14.4 11.4 0
-14.4 11.7 0
-14.4 12 0
-14.4 12.3 0
-14.4 12.6 0
-14.4 12.9 0
-14.4 13.2 0
-14.4 13.5 0
-14.4 13.8 0
-14.4 14.1 0
-14.4 14.4 0
-14.4 14.7 0
-14.4 15 0
-14.1 -15 0
-14.1 -14.7 0
-14.1 -14.4 0
-14.1 -14.1 0
-14.1 -13.8 0
-14.1 -13.5 0
-14.1 -13.2 0
-14.1 -12.9 0
-14.1 -12.6 0
-14.1 -12.3 0
-14.1 -12 0
-14.1 -11.7 0
-14.1 -11.4 0
-14.1 -11.1 0
-14.1 -10.8 0
-14.1 -10.5 0
-14.1 -10.2 0
-14.1 -9.9 0
-14.1 -9.6 0
-14.1 -9.3 0
-14.1 -9 0
-14.1 -8.7 0
-14.1 -8.4 0
-14.1 -8.1 0
-14.1 -7.8 0
-14.1 -7.5 0
-14.1 -7.2 0
-14.1 -6.9 0
-14.1 -6.6 0
-14.1 -6.3 0
-14.1 -6 0
-14.1 -5.7 0
-14.1 -5.4 0
-14.1 -5.1 0
-14.1 -4.8 0
-14.1 -4.5 0
-14.1 -4.2 0
-14.1 -3.9 0
-14.1 -3.6 0
-14.1 -3.3 0
-14.1 -3 0
-14.1 -2.7 0
-14.1 -2.4 0
-14.1 -2.1 0
-14.1 -1.8 0
-14.1 -1.5 0
-14.1 -1.2 0
-14.1 -0.9 0
-14.1 -0.6 0
-14.1 -0.3 0
-14.1 0 0
-14.1 0.3 0
-14.1 0.6 0
-14.1 0.9 0
-14.1 1.2 0
-14.1 1.5 0
-14.1 1.8 0
-14.1 2.1 0
-14.1 2.4 0
-14.1 2.7 0
-14.1 3 0
-14.1 3.3 0
-14.1 3.6 0
-14.1 3.9 0
-14.1 4.2 0
-14.1 4.5 0
-14.1 4.8 0
-14.1 5.1 0
-14.1 5.4 0
-14.1 5.7 0
-14.1 6 0
-14.1 6.3 0
-14.1 6.6 0
-14.1 6.9 0
-14.1 7.2 0
-14.1 7.5 0
-14.1 7.8 0
-14.1 8.1 0
-14.1 8.4 0
-14.1 8.7 0
-14.1 9 0
-14.1 9.3 0
-14.1 9.6 0
-14.1 9.9 0
-14.1 10.2 0
-14.1 10.5 0
-14.1 10.8 0
-14.1 11.1 0
-14.1 11.4 0
-14.1 11.7 0
-14.1 12 0
-14.1 12.3 0
-14.1 12.6 0
-14.1 12.9 0
-14.1 13.2 0
-14.1 13.5 0
-14.1 13.8 0
-14.1 14.1 0
-14.1 14.4 0
-14.1 14.7 0
-14.1 15 0
-13.8 -15 0
-13.8 -14.7 0
-13.8 -14.4 0
-13.8 -14.1 0
-13.8 -13.8 0
-13.8 -13.5 0
-13.8 -13.2 0
-13.8 -12.9 0
-13.8 -12.6 0
-13.8 -12.3 0
-13.8 -12 0
-13.8 -11.7 0
-13.8 -11.4 0
-13.8 -11.1 0
-13.8 -10.8 0
-13.8 -10.5 0
-13.8 -10.2 0
-13.8 -9.9 0
-13.8 -9.6 0
-13.8 -9.3 0
-13.8 -9 0
-13.8 -8.7 0
-13.8 -8.4 0
-13.8 -8.1 0
-13.8 -7.8 0
-13.8 -7.5 0
-13.8 -7.2 0
-13.8 -6.9 0
-13.8 -6.6 0
-13.8 -6.3 0
-13.8 -6 0
-13.8 -5.7 0
-13.8 -5.4 0
-13.8 -5.1 0
-13.8 -4.8 0
-13.8 -4.5 0
-13.8 -4.2 0
-13.8 -3.9 0
-13.8 -3.6 0
-13.8 -3.3 0
-13.8 -3 0
-13.8 -2.7 0
-13.8 -2.4 0
-13.8 -2.1 0
-13.8 -1.8 0
-13.8 -1.5 0
-13.8 -1.2 0
-13.8 -0.9 0
-13.8 -0.6 0
-13.8 -0.3 0
-13.8 0 0
-13.8 0.3 0
-13.8 0.6 0
-13.8 0.9 0
-13.8 1.2 0
-13.8 1.5 0
-13.8 1.8 0
-13.8 2.1 0
-13.8 2.4 0
-13.8 2.7 0
-13.8 3 0
-13.8 3.3 0
-13.8 3.6 0
-13.8 3.9 0
-13.8 4.2 0
-13.8 4.5 0
-13.8 4.8 0
-13.8 5.1 0
-13.8 5.4 0
-13.8 5.7 0
-13.8 6 0
-13.8 6.3 0
-13.8 6.6 0
-13.8 6.9 0
-13.8 7.2 0
-13.8 7.5 0
-13.8 7.8 0
-13.8 8.1 0
-13.8 8.4 0
-13.8 8.7 0
-13.8 9 0
-13.8 9.3 0
-13.8 9.6 0
-13.8 9.9 0
-13.8 10.2 0
-13.8 10.5 0
-13.8 10.8 0
-13.8 11.1 0
-13.8 11.4 0
-13.8 11.7 0
-13.8 12 0
-13.8 12.3 0
-13.8 12.6 0
-13.8 12.9 0
-13.8 13.2 0
-13.8 13.5 0
-13.8 13.8 0
-13.8 14.1 0
-13.8 14.4 0
-13.8 14.7 0
-13.8 15 0
-13.5 -15 0
-13.5 -14.7 0
-13.5 -14.4 0
-13.5 -14.1 0
-13.5 -13.8 0
-13.5 -13.5 0
-13.5 -13.2 0
-13.5 -12.9 0
-13.5 -12.6 0
-13.5 -12.3 0
-13.5 -12 0
-13.5 -11.7 0
-13.5 -11.4 0
-13.5 -11.1 0
-13.5 -10.8 0
-13.5 -10.5 0
-13.5 -10.2 0
-13.5 -9.9 0
-13.5 -9.6 0
-13.5 -9.3 0
-13.5 -9 0
-13.5 -8.7 0
-13.5 -8.4 0
-13.5 -8.1 0
-13.5 -7.8 0
-13.5 -7.5 0
-13.5 -7.2 0
-13.5 -6.9 0
-13.5 -6.6 0
-13.5 -6.3 0
-13.5 -6 0
-13.5 -5.7 0
-13.5 -5.4 0
-13.5 -5.1 0
-13.5 -4.8 0
-13.5 -4.5 0
-13.5 -4.2 0
-13.5 -3.9 0
-13.5 -3.6 0
-13.5 -3.3 0
-13.5 -3 0
-13.5 -2.7 0
-13.5 -2.4 0
-13.5 -2.1 0
-13.5 -1.8 0
-13.5 -1.5 0
-13.5 -1.2 0
-13.5 -0.9 0
-13.5 -0.6 0
-13.5 -0.3 0
-13.5 0 0
-13.5 0.3 0
-13.5 0.6 0
-13.5 0.9 0
-13.5 1.2 0
-13.5 1.5 0
-13.5 1.8 0
-13.5 2.1 0
-13.5 2.4 0
-13.5 2.7 0
-13.5 3 0
-13.5 3.3 0
-13.5 3.6 0
-13.5 3.9 0
-13.5 4.2 0
-13.5 4.5 0
-13.5 4.8 0
-13.5 5.1 0
-13.5 5.4 0
-13.5 5.7 0
-13.5 6 0
-13.5 6.3 0
-13.5 6.6 0
-13.5 6.9 0
-13.5 7.2 0
-13.5 7.5 0
-13.5 7.8 0
-13.5 8.1 0
-13.5 8.4 0
-13.5 8.7 0
-13.5 9 0
-13.5 9.3 0
-13.5 9.6 0
-13.5 9.9 0
-13.5 10.2 0
-13.5 10.5 0
-13.5 10.8 0
-13.5 11.1 0
-13.5 11.4 0
-13.5 11.7 0
-13.5 12 0
-13.5 12.3 0
-13.5 12.6 0
-13.5 12.9 0
-13.5 13.2 0
-13.5 13.5 0
-13.5 13.8 0
-13.5 14.1 0
-13.5 14.4 0
-13.5 14.7 0
-13.5 15 0
-13.2 -15 0
-13.2 -14.7 0
-13.2 -14.4 0
-13.2 -14.1 0
-13.2 -13.8 0
-13.2 -13.5 0
-13.2 -13.2 0
-13.2 -12.9 0
-13.2 -12.6 0
-13.2 -12.3 0
-13.2 -12 0
-13.2 -11.7 0
-13.2 -11.4 0
-13.2 -11.1 0
-13.2 -10.8 0
-13.2 -10.5 0
-13.2 -10.2 0
-13.2 -9.9 0
-13.2 -9.6 0
-13.2 -9.3 0
-13.2 -9 0
-13.2 -8.7 0
-13.2 -8.4 0
-13.2 -8.1 0
-13.2 -7.8 0
-13.2 -7.5 0
-13.2 -7.2 0
-13.2 -6.9 0
-13.2 -6.6 0
-13.2 -6.3 0
-13.2 -6 0
-13.2 -5.7 0
-13.2 -5.4 0
-13.2 -5.1 0
-13.2 -4.8 0
-13.2 -4.5 0
-13.2 -4.2 0
-13.2 -3.9 0
-13.2 -3.6 0
-13.2 -3.3 0
-13.2 -3 0
-13.2 -2.7 0
-13.2 -2.4 0
-13.2 -2.1 0
-13.2 -1.8 0
-13.2 -1.5 0
-13.2 -1.2 0
-13.2 -0.9 0
-13.2 -0.6 0
-13.2 -0.3 0
-13.2 0 0
-13.2 0.3 0
-13.2 0.6 0
-13.2 0.9 0
-13.2 1.2 0
-13.2 1.5 0
-13.2 1.8 0
-13.2 2.1 0
-13.2 2.4 0
-13.2 2.7 0
-13.2 3 0
-13.2 3.3 0
-13.2 3.6 0
-13.2 3.9 0
-13.2 4.2 0
-13.2 4.5 0
-13.2 4.8 0
-13.2 5.1 0
-13.2 5.4 0
-13.2 5.7 0
-13.2 6 0
-13.2 6.3 0
-13.2 6.6 0
-13.2 6.9 0
-13.2 7.2 0
-13.2 7.5 0
-13.2 7.8 0
-13.2 8.1 0
-13.2 8.4 0
-13.2 8.7 0
-13.2 9 0
-13.2 9.3 0
-13.2 9.6 0
-13.2 9.9 0
-13.2 10.2 0
-13.2 10.5 0
-13.2 10.8 0
-13.2 11.1 0
-13.2 11.4 0
-13.2 11.7 0
-13.2 12 0
-13.2 12.3 0
-13.2 12.6 0
-13.2 12.9 0
-13.2 13.2 0
-13.2 13.5 0
-13.2 13.8 0
-13.2 14.1 0
-13.2 14.4 0
-13.2 14.7 0
-13.2 15 0
-12.9 -15 0
-12.9 -14.7 0
-12.9 -14.4 0
-12.9 -14.1 0
-12.9 -13.8 0
-12.9 -13.5 0
-12.9 -13.2 0
-12.9 -12.9 0
-12.9 -12.6 0
-12.9 -12.3 0
-12.9 -12 0
-12.9 -11.7 0
-12.9 -11.4 0
-12.9 -11.1 0
-12.9 -10.8 0
-12.9 -10.5 0
-12.9 -10.2 0
-12.9 -9.9 0
-12.9 -9.6 0
-12.9 -9.3 0
-12.9 -9 0
-12.9 -8.7 0
-12.9 -8.4 0
-12.9 -8.1 0
-12.9 -7.8 0
-12.9 -7.5 0
-12.9 -7.2 0
-12.9 -6.9 0
-12.9 -6.6 0
-12.9 -6.3 0
-12.9 -6 0
-12.9 -5.7 0
-12.9 -5.4 0
-12.9 -5.1 0
-12.9 -4.8 0
-12.9 -4.5 0
-12.9 -4.2 0
-12.9 -3.9 0
-12.9 -3.6 0
-12.9 -3.3 0
-12.9 -3 0
-12.9 -2.7 0
-12.9 -2.4 0
-12.9 -2.1 0
-12.9 -1.8 0
-12.9 -1.5 0
-12.9 -1.2 0
-12.9 -0.9 0
-12.9 -0.6 0
-12.9 -0.3 0
-12.9 0 0
-12.9 0.3 0
-12.9 0.6 0
-12.9 0.9 0
-12.9 1.2 0
-12.9 1.5 0
-12.9 1.8 0
-12.9 2.1 0
-12.9 2.4 0
-12.9 2.7 0
-12.9 3 0
-12.9 3.3 0
-12.9 3.6 0
-12.9 3.9 0
-12.9 4.2 0
-12.9 4.5 0
-12.9 4.8 0
-12.9 5.1 0
-12.9 5.4 0
-12.9 5.7 0
-12.9 6 0
-12.9 6.3 0
-12.9 6.6 0
-12.9 6.9 0
-12.9 7.2 0
-12.9 7.5 0
-12.9 7.8 0
-12.9 8.1 0
-12.9 8.4 0
-12.9 8.7 0
-12.9 9 0
[...]
            <PointData>
                <DataArray type="Float64" Name="c1" format="ascii">
0.000672804 0.000673614 0.000676041 0.000680085 0.000685742 0.000693007 0.000701874 0.000712335 0.000724378 0.000737993 0.000753165 0.000769876 0.000788105 0.000807829 0.00082902 0.000851647 0.000875673 0.000901058 0.000927754 0.00095571 0.000984866 0.00101516 0.00104652 0.00107886 0.0011121 0.00114614 0.00118089 0.00121623 0.00125203 0.00128819 0.00132456 0.00136099 0.00139735 0.00143347 0.0014692 0.00150437 0.00153881 0.00157235 0.00160481 0.00163602 0.00166582 0.00169402 0.00172047 0.00174501 0.00176749 0.00178777 0.00180572 0.00182123 0.0018342 0.00184454 0.00185219 0.0018571 0.00185923 0.00185857 0.00185514 0.00184896 0.00184007 0.00182854 0.00181444 0.00179788 0.00177898 0.00175784 0.00173463 0.00170948 0.00168256 0.00165403 0.00162407 0.00159285 0.00156055 0.00152735 0.00149344 0.00145899 0.00142417 0.00138916 0.00135413 0.00131922 0.0012846 0.00125042 0.0012168 0.00118388 0.00115179 0.00112063 0.00109052 0.00106155 0.00103382 0.0010074 0.000982377 0.000958813 0.000936771 0.000916309 0.000897474 0.000880311 0.000864858 0.000851149 0.000839213 0.000829073 0.00082075 0.000814261 0.000809617 0.000806827 0.000805896 
0.000673504 0.000674316 0.00067675 0.000680806 0.000686479 0.000693764 0.000702657 0.000713147 0.000725226 0.000738881 0.000754098 0.00077086 0.000789145 0.00080893 0.000830189 0.000852889 0.000876995 0.000902464 0.000929252 0.000957305 0.000986566 0.00101697 0.00104844 0.00108091 0.00111428 0.00114846 0.00118335 0.00121883 0.00125479 0.00129111 0.00132763 0.00136424 0.00140076 0.00143706 0.00147296 0.0015083 0.00154292 0.00157662 0.00160926 0.00164063 0.00167059 0.00169894 0.00172554 0.00175022 0.00177282 0.00179322 0.00181128 0.00182688 0.00183992 0.00185033 0.00185802 0.00186295 0.0018651 0.00186444 0.00186099 0.00185477 0.00184582 0.00183422 0.00182005 0.00180339 0.00178437 0.00176312 0.00173977 0.00171448 0.00168741 0.00165873 0.0016286 0.00159721 0.00156475 0.00153138 0.00149729 0.00146267 0.00142769 0.00139251 0.00135731 0.00132224 0.00128747 0.00125313 0.00121936 0.0011863 0.00115408 0.00112279 0.00109256 0.00106348 0.00103563 0.00100911 0.000983995 0.000960343 0.000938221 0.000917684 0.000898782 0.000881559 0.000866052 0.000852296 0.000840319 0.000830145 0.000821795 0.000815283 0.000810624 0.000807824 0.000806891 
0.000675602 0.000676421 0.000678876 0.000682965 0.000688686 0.000696034 0.000705003 0.000715584 0.000727768 0.000741544 0.000756897 0.00077381 0.000792264 0.000812235 0.000833696 0.000856615 0.000880958 0.000906684 0.000933747 0.000962094 0.000991668 0.0010224 0.00105423 0.00108707 0.00112083 0.00115541 0.00119073 0.00122665 0.00126308 0.00129986 0.00133688 0.00137398 0.00141102 0.00144783 0.00148425 0.00152012 0.00155525 0.00158948 0.00162262 0.0016545 0.00168493 0.00171375 0.00174079 0.00176588 0.00178887 0.00180962 0.00182799 0.00184386 0.00185714 0.00186772 0.00187555 0.00188058 0.00188276 0.00188209 0.00187857 0.00187224 0.00186313 0.00185133 0.0018369 0.00181995 0.0018006 0.00177898 0.00175524 0.00172952 0.001702 0.00167284 0.00164223 0.00161034 0.00157736 0.00154348 0.00150888 0.00147374 0.00143824 0.00140256 0.00136686 0.00133131 0.00129606 0.00126126 0.00122706 0.00119358 0.00116094 0.00112927 0.00109867 0.00106925 0.00104108 0.00101425 0.00098885 0.000964935 0.00094257 0.000921811 0.000902708 0.000885303 0.000869635 0.000855737 0.000843637 0.00083336 0.000824925 0.000818349 0.000813643 0.000810816 0.000809873 
0.000679095 0.000679924 0.000682414 0.00068656 0.000692361 0.000699812 0.000708908 0.000719641 0.000732001 0.000745978 0.000761559 0.000778726 0.00079746 0.00081774 0.000839538 0.000862825 0.000887566 0.000913719 0.000941241 0.000970079 0.00100018 0.00103147 0.00106388 0.00109734 0.00113175 0.00116702 0.00120305 0.00123972 0.00127691 0.00131449 0.00135232 0.00139026 0.00142815 0.00146583 0.00150313 0.00153987 0.00157588 0.00161098 0.00164498 0.00167769 0.00170894 0.00173854 0.00176632 0.00179211 0.00181575 0.00183709 0.00185598 0.00187232 0.00188598 0.00189687 0.00190493 0.0019101 0.00191234 0.00191165 0.00190803 0.00190151 0.00189213 0.00187998 0.00186513 0.00184769 0.00182778 0.00180554 0.00178113 0.00175469 0.00172641 0.00169646 0.00166503 0.0016323 0.00159847 0.00156372 0.00152825 0.00149224 0.00145588 0.00141935 0.00138282 0.00134645 0.00131041 0.00127485 0.00123991 0.00120571 0.0011724 0.00114009 0.00110888 0.00107887 0.00105015 0.00102282 0.000996943 0.000972588 0.000949818 0.000928689 0.000909248 0.00089154 0.000875602 0.000861468 0.000849164 0.000838714 0.000830139 0.000823453 0.00081867 0.000815796 0.000814838 
0.000683974 0.00068482 0.000687357 0.000691583 0.000697496 0.000705093 0.000714367 0.000725312 0.000737919 0.000752179 0.000768078 0.000785601 0.00080473 0.000825443 0.000847716 0.000871518 0.000896816 0.000923571 0.000951739 0.000981267 0.0010121 0.00104417 0.00107741 0.00111174 0.00114708 0.00118331 0.00122034 0.00125806 0.00129634 0.00133504 0.00137403 0.00141315 0.00145225 0.00149115 0.00152968 0.00156767 0.00160492 0.00164125 0.00167646 0.00171037 0.00174277 0.00177348 0.00180231 0.00182909 0.00185365 0.00187582 0.00189547 0.00191245 0.00192666 0.00193799 0.00194638 0.00195176 0.00195409 0.00195337 0.00194959 0.0019428 0.00193304 0.00192039 0.00190494 0.0018868 0.0018661 0.00184299 0.00181762 0.00179017 0.00176081 0.00172974 0.00169714 0.00166322 0.00162817 0.00159219 0.00155549 0.00151826 0.00148068 0.00144295 0.00140524 0.00136773 0.00133057 0.00129393 0.00125794 0.00122275 0.00118848 0.00115525 0.00112318 0.00109235 0.00106287 0.00103482 0.00100828 0.000983305 0.000959965 0.000938314 0.000918401 0.000900267 0.00088395 0.000869483 0.000856892 0.0008462 0.000837428 0.000830589 0.000825697 0.000822758 0.000821778 
0.00069023 0.000691096 0.000693695 0.000698024 0.000704082 0.000711865 0.000721369 0.000732587 0.000745513 0.000760137 0.000776447 0.000794429 0.000814067 0.00083534 0.000858224 0.000882692 0.000908711 0.000936243 0.000965245 0.000995666 0.00102745 0.00106054 0.00109485 0.00113031 0.00116683 0.00120432 0.00124265 0.00128173 0.00132142 0.00136158 0.00140207 0.00144273 0.0014834 0.0015239 0.00156405 0.00160365 0.00164253 0.00168046 0.00171726 0.00175272 0.00178663 0.00181879 0.001849 0.00187708 0.00190284 0.00192611 0.00194674 0.00196458 0.0019795 0.00199142 0.00200023 0.00200588 0.00200833 0.00200756 0.00200359 0.00199645 0.00198618 0.00197288 0.00195664 0.00193758 0.00191584 0.00189158 0.00186497 0.00183618 0.00180541 0.00177286 0.00173874 0.00170326 0.00166663 0.00162905 0.00159075 0.00155191 0.00151275 0.00147346 0.00143421 0.0013952 0.00135659 0.00131854 0.0012812 0.00124471 0.0012092 0.00117479 0.0011416 0.00110972 0.00107925 0.00105027 0.00102286 0.000997086 0.00097301 0.000950686 0.000930161 0.000911477 0.000894671 0.000879774 0.000866812 0.000855809 0.000846782 0.000839746 0.000834713 0.00083169 0.000830682 
0.00069785 0.000698741 0.000701415 0.00070587 0.000712105 0.000720117 0.000729903 0.000741456 0.000754772 0.000769842 0.000786656 0.000805202 0.000825463 0.000847423 0.00087106 0.000896345 0.00092325 0.000951737 0.000981766 0.00101329 0.00104624 0.00108058 0.00111621 0.00115307 0.00119106 0.00123009 0.00127004 0.0013108 0.00135223 0.0013942 0.00143655 0.00147912 0.00152174 0.00156422 0.00160638 0.001648 0.00168889 0.00172883 0.00176761 0.00180501 0.0018408 0.00187477 0.00190671 0.00193641 0.00196368 0.00198832 0.00201018 0.00202909 0.00204492 0.00205755 0.0020669 0.00207289 0.00207549 0.00207467 0.00207045 0.00206286 0.00205196 0.00203785 0.00202062 0.00200041 0.00197736 0.00195166 0.00192348 0.00189302 0.00186049 0.00182611 0.00179009 0.00175266 0.00171405 0.00167448 0.00163417 0.00159335 0.00155221 0.00151098 0.00146983 0.00142897 0.00138855 0.00134876 0.00130974 0.00127165 0.0012346 0.00119874 0.00116416 0.00113098 0.00109929 0.00106917 0.00104069 0.00101393 0.000988951 0.000965798 0.000944522 0.000925162 0.000907755 0.00089233 0.000878914 0.000867527 0.000858188 0.00085091 0.000845704 0.000842578 0.000841535 
0.000706817 0.000707738 0.000710501 0.000715106 0.000721551 0.000729834 0.000739953 0.000751904 0.000765682 0.000781281 0.000798693 0.000817907 0.000838911 0.000861687 0.000886216 0.000912474 0.000940432 0.000970057 0.00100131 0.00103414 0.00106849 0.00110431 0.00114153 0.00118005 0.0012198 0.00126068 0.00130256 0.00134534 0.00138887 0.001433 0.00147759 0.00152246 0.00156743 0.0016123 0.00165687 0.00170094 0.00174427 0.00178663 0.00182781 0.00186755 0.00190562 0.0019418 0.00197583 0.0020075 0.0020366 0.00206292 0.00208627 0.00210648 0.00212341 0.00213693 0.00214693 0.00215334 0.00215611 0.00215523 0.0021507 0.00214257 0.0021309 0.00211579 0.00209735 0.00207573 0.00205111 0.00202365 0.00199357 0.00196108 0.00192641 0.00188979 0.00185147 0.00181168 0.00177068 0.00172869 0.00168597 0.00164275 0.00159924 0.00155566 0.00151223 0.00146913 0.00142655 0.00138467 0.00134364 0.00130362 0.00126474 0.00122713 0.0011909 0.00115616 0.00112301 0.00109152 0.00106178 0.00103385 0.00100779 0.000983647 0.000961475 0.000941312 0.000923189 0.000907137 0.00089318 0.000881339 0.000871628 0.000864063 0.000858652 0.000855403 0.00085432 
0.000717112 0.000718067 0.000720934 0.000725711 0.000732399 0.000740996 0.000751501 0.000763912 0.000778226 0.000794439 0.000812543 0.000832533 0.000854395 0.000878119 0.000903684 0.000931072 0.000960256 0.000991203 0.00102388 0.00105823 0.00109422 0.00113178 0.00117083 0.00121131 0.00125311 0.00129615 0.0013403 0.00138544 0.00143143 0.00147812 0.00152534 0.00157292 0.00162065 0.00166835 0.00171578 0.00176272 0.00180894 0.00185418 0.0018982 0.00194073 0.00198152 0.0020203 0.00205683 0.00209086 0.00212214 0.00215045 0.00217559 0.00219736 0.0022156 0.00223017 0.00224094 0.00224785 0.00225084 0.00224988 0.00224499 0.0022362 0.00222361 0.0022073 0.00218742 0.00216413 0.0021376 0.00210805 0.00207571 0.0020408 0.00200358 0.00196431 0.00192324 0.00188066 0.00183681 0.00179197 0.00174639 0.00170032 0.00165401 0.00160767 0.00156154 0.00151581 0.00147069 0.00142635 0.00138296 0.00134068 0.00129965 0.00126 0.00122184 0.00118529 0.00115043 0.00111735 0.00108613 0.00105683 0.00102951 0.00100422 0.00098101 0.000959912 0.000940959 0.000924179 0.000909594 0.000897224 0.000887083 0.000879184 0.000873536 0.000870144 0.000869013 
0.000728712 0.000729707 0.000732691 0.000737664 0.000744628 0.000753582 0.000764526 0.00077746 0.000792383 0.000809294 0.000828188 0.00084906 0.000871903 0.000896706 0.000923455 0.000952133 0.000982716 0.00101518 0.00104948 0.00108558 0.00112344 0.00116299 0.00120416 0.00124688 0.00129105 0.00133657 0.00138334 0.00143121 0.00148004 0.00152968 0.00157996 0.00163067 0.00168162 0.0017326 0.00178336 0.00183366 0.00188324 0.00193184 0.00197918 0.00202498 0.00206895 0.00211081 0.00215026 0.00218705 0.0022209 0.00225157 0.00227881 0.00230242 0.0023222 0.00233801 0.00234971 0.00235721 0.00236044 0.00235939 0.00235406 0.00234451 0.00233081 0.0023131 0.00229151 0.00226624 0.00223748 0.00220547 0.00217046 0.0021327 0.00209249 0.0020501 0.00200583 0.00195996 0.0019128 0.00186462 0.0018157 0.00176633 0.00171674 0.0016672 0.00161793 0.00156916 0.00152109 0.00147391 0.0014278 0.00138291 0.0013394 0.0012974 0.00125702 0.00121837 0.00118156 0.00114665 0.00111374 0.00108287 0.00105411 0.00102751 0.00100311 0.000980946 0.000961044 0.000943433 0.000928132 0.000915159 0.000904527 0.000896247 0.000890328 0.000886774 0.000885589 
0.00074159 0.000742629 0.000745744 0.000750938 0.000758211 0.000767565 0.000779001 0.000792523 0.00080813 0.000825824 0.000845604 0.000867469 0.000891414 0.000917432 0.000945514 0.000975645 0.00100781 0.00104197 0.00107812 0.0011162 0.00115617 0.00119797 0.00124154 0.00128681 0.00133367 0.00138203 0.00143177 0.00148276 0.00153484 0.00158786 0.00164162 0.00169593 0.00175058 0.00180533 0.00185992 0.00191409 0.00196757 0.00202005 0.00207124 0.00212082 0.00216848 0.0022139 0.00225677 0.00229677 0.00233362 0.00236702 0.00239672 0.00242247 0.00244407 0.00246132 0.0024741 0.00248228 0.0024858 0.00248464 0.0024788 0.00246835 0.00245337 0.00243401 0.00241043 0.00238284 0.00235147 0.00231659 0.00227846 0.00223739 0.0021937 0.00214769 0.00209969 0.00205003 0.00199902 0.00194699 0.00189423 0.00184103 0.00178769 0.00173446 0.0016816 0.00162934 0.00157789 0.00152747 0.00147824 0.00143039 0.00138405 0.00133937 0.00129647 0.00125545 0.00121642 0.00117944 0.00114461 0.00111197 0.00108159 0.00105351 0.00102776 0.00100439 0.000983422 0.000964873 0.000948766 0.000935115 0.000923931 0.000915223 0.000908999 0.000905263 0.000904017 
0.000755717 0.000756804 0.000760065 0.000765503 0.000773118 0.000782916 0.000794899 0.000809071 0.000825438 0.000844002 0.000864767 0.000887735 0.000912905 0.000940277 0.000969843 0.00100159 0.00103552 0.00107159 0.00110979 0.00115008 0.00119242 0.00123676 0.00128303 0.00133115 0.00138104 0.0014326 0.0014857 0.0015402 0.00159596 0.0016528 0.00171053 0.00176894 0.00182779 0.00188684 0.0019458 0.00200441 0.00206234 0.00211927 0.00217488 0.00222881 0.00228073 0.00233026 0.00237706 0.00242079 0.0024611 0.00249768 0.00253022 0.00255847 0.00258216 0.0026011 0.00261512 0.0026241 0.00262796 0.00262666 0.00262023 0.00260873 0.00259226 0.00257098 0.00254508 0.0025148 0.00248041 0.00244219 0.00240046 0.00235556 0.00230785 0.00225766 0.00220538 0.00215135 0.00209593 0.00203947 0.0019823 0.00192475 0.00186711 0.00180969 0.00175273 0.00169651 0.00164124 0.00158714 0.00153439 0.00148318 0.00143366 0.00138597 0.00134023 0.00129654 0.00125502 0.00121572 0.00117874 0.00114412 0.00111192 0.00108218 0.00105494 0.00103023 0.00100806 0.000988471 0.000971465 0.000957058 0.00094526 0.000936076 0.000929513 0.000925574 0.00092426 
0.000771057 0.000772198 0.000775619 0.000781324 0.000789317 0.000799601 0.000812184 0.000827073 0.000844274 0.000863796 0.000885645 0.000909829 0.000936351 0.000965214 0.00099642 0.00102996 0.00106583 0.00110402 0.0011445 0.00118724 0.00123222 0.00127937 0.00132864 0.00137995 0.00143323 0.00148835 0.00154522 0.00160367 0.00166356 0.00172471 0.00178691 0.00184993 0.00191354 0.00197745 0.00204139 0.00210502 0.00216802 0.00223004 0.00229069 0.00234961 0.00240639 0.00246064 0.00251197 0.00255997 0.00260427 0.00264451 0.00268035 0.00271146 0.00273758 0.00275847 0.00277394 0.00278384 0.00278808 0.00278663 0.00277951 0.00276678 0.00274858 0.00272508 0.0026965 0.00266312 0.00262523 0.00258316 0.00253729 0.00248798 0.00243565 0.00238068 0.00232348 0.00226446 0.002204 0.0021425 0.00208032 0.00201782 0.00195532 0.00189313 0.00183156 0.00177086 0.00171128 0.00165304 0.00159635 0.00154138 0.00148829 0.00143723 0.00138832 0.00134167 0.00129736 0.00125549 0.00121612 0.0011793 0.00114509 0.00111351 0.00108461 0.00105841 0.00103493 0.00101419 0.000996192 0.000980951 0.000968474 0.000958766 0.000951829 0.000947666 0.000946278 
0.000787573 0.000788772 0.000792368 0.000798364 0.000806767 0.000817583 0.000830821 0.00084649 0.000864603 0.00088517 0.000908204 0.000933716 0.000961717 0.000992216 0.00102522 0.00106072 0.00109874 0.00113924 0.00118223 0.00122768 0.00127556 0.00132582 0.00137841 0.00143326 0.00149029 0.00154939 0.00161044 0.0016733 0.0017378 0.00180376 0.00187097 0.00193918 0.00200813 0.00207754 0.00214708 0.0022164 0.00228515 0.00235293 0.00241932 0.00248391 0.00254625 0.00260589 0.00266239 0.0027153 0.00276418 0.00280863 0.00284824 0.00288267 0.00291158 0.00293472 0.00295185 0.00296281 0.0029675 0.00296587 0.00295794 0.00294381 0.00292361 0.00289754 0.00286588 0.00282891 0.00278699 0.00274051 0.00268988 0.00263552 0.0025779 0.00251746 0.00245466 0.00238995 0.00232377 0.00225655 0.0021887 0.0021206 0.00205261 0.00198507 0.0019183 0.00185259 0.00178818 0.00172532 0.00166422 0.00160506 0.00154801 0.00149321 0.00144078 0.00139084 0.00134346 0.00129874 0.00125674 0.00121749 0.00118106 0.00114747 0.00111675 0.00108892 0.00106399 0.00104199 0.0010229 0.00100675 0.000993529 0.000983246 0.0009759 0.000971493 0.000970023 
0.000805222 0.000806484 0.000810268 0.000816581 0.000825427 0.000836818 0.000850765 0.00086728 0.000886381 0.000908082 0.000932402 0.000959358 0.000988967 0.00102124 0.0010562 0.00109385 0.0011342 0.00117724 0.00122298 0.00127139 0.00132245 0.00137613 0.00143237 0.00149112 0.00155229 0.00161577 0.00168146 0.0017492 0.00181883 0.00189016 0.00196295 0.00203696 0.0021119 0.00218746 0.0022633 0.00233904 0.00241427 0.00248857 0.00256147 0.0026325 0.00270116 0.00276694 0.00282935 0.00288787 0.00294199 0.00299126 0.00303521 0.00307344 0.00310557 0.00313129 0.00315033 0.00316251 0.00316771 0.00316587 0.00315702 0.00314126 0.00311875 0.00308974 0.00305451 0.00301343 0.0029669 0.00291535 0.00285926 0.00279914 0.00273548 0.00266881 0.00259964 0.00252848 0.00245582 0.00238214 0.00230788 0.00223348 0.00215932 0.00208579 0.00201321 0.00194189 0.0018721 0.0018041 0.00173811 0.0016743 0.00161286 0.00155393 0.00149763 0.00144406 0.00139331 0.00134547 0.00130057 0.00125867 0.00121981 0.00118402 0.00115131 0.0011217 0.0010952 0.00107181 0.00105154 0.0010344 0.00102037 0.00100946 0.00100167 0.000997 0.000995443 
0.000823957 0.000825286 0.000829273 0.000835925 0.00084525 0.00085726 0.000871969 0.000889396 0.000909561 0.000932486 0.000958194 0.000986709 0.00101805 0.00105226 0.00108933 0.0011293 0.00117219 0.00121799 0.00126671 0.00131835 0.00137289 0.0014303 0.00149054 0.00155356 0.00161927 0.00168759 0.00175839 0.00183153 0.00190683 0.0019841 0.0020631 0.00214356 0.00222518 0.00230763 0.00239053 0.00247347 0.002556 0.00263765 0.0027179 0.00279622 0.00287206 0.00294483 0.00301396 0.00307887 0.00313899 0.00319378 0.0032427 0.00328529 0.00332111 0.00334979 0.00337104 0.00338463 0.00339041 0.00338833 0.00337841 0.00336077 0.00333561 0.0033032 0.00326389 0.00321808 0.00316625 0.00310891 0.0030466 0.00297988 0.00290936 0.00283561 0.00275921 0.00268075 0.00260077 0.0025198 0.00243834 0.00235687 0.00227582 0.00219558 0.00211652 0.00203897 0.00196321 0.00188952 0.00181811 0.00174918 0.00168291 0.00161943 0.00155887 0.00150134 0.0014469 0.00139564 0.00134759 0.0013028 0.0012613 0.00122311 0.00118824 0.0011567 0.00112849 0.00110361 0.00108206 0.00106384 0.00104894 0.00103736 0.00102909 0.00102413 0.00102248 
0.000843726 0.000845127 0.000849331 0.000856346 0.000866182 0.000878854 0.000894381 0.000912785 0.000934091 0.000958328 0.000985525 0.00101571 0.00104893 0.0010852 0.00112456 0.00116704 0.00121266 0.00126144 0.0013134 0.00136854 0.00142685 0.00148832 0.00155293 0.0016206 0.00169129 0.0017649 0.00184131 0.00192038 0.00200194 0.00208578 0.00217165 0.00225927 0.00234833 0.00243846 0.00252925 0.00262025 0.00271098 0.0028009 0.00288944 0.002976 0.00305996 0.00314066 0.00321744 0.00328964 0.00335661 0.0034177 0.00347232 0.0035199 0.00355996 0.00359205 0.00361582 0.00363102 0.00363747 0.00363511 0.00362396 0.00360417 0.00357595 0.00353964 0.00349563 0.00344441 0.00338652 0.00332255 0.00325313 0.00317892 0.00310058 0.0030188 0.00293422 0.00284751 0.00275928 0.00267012 0.00258059 0.00249121 0.00240245 0.00231474 0.00222848 0.00214402 0.00206166 0.00198168 0.00190431 0.00182975 0.00175818 0.00168973 0.00162453 0.00156266 0.0015042 0.00144922 0.00139775 0.00134983 0.00130547 0.00126468 0.00122748 0.00119385 0.0011638 0.00113732 0.0011144 0.00109502 0.00107918 0.00106687 0.00105808 0.00105281 0.00105106 