<?xml version="1.0"?>
<VTKFile type="StructuredGrid" version="0.1">
    <StructuredGrid WholeExtent="0 100 0 100 0 0">
        <Piece Extent="0 100 0 100 0 0">
            <Points>
                <DataArray type="Float64" NumberOfComponents="3" format="ascii">
-15 -15 0
-15 -14.7 0
-15 -14.4 0
-15 -14.1 0
-15 -13.8 0
-15 -13.5 0
-15 -13.2 0
-15 -12.9 0
-15 -12.6 0
-15 -12.3 0
-15 -12 0
-15 -11.7 0
-15 -11.4 0
-15 -11.1 0
-15 -10.8 0
-15 -10.5 0
-15 -10.2 0
-15 -9.9 0
-15 -9.6 0
-15 -9.3 0
-15 -9 0
-15 -8.7 0
-15 -8.4 0
-15 -8.1 0
-15 -7.8 0
-15 -7.5 0
-15 -7.2 0
-15 -6.9 0
-15 -6.6 0
-15 -6.3 0
-15 -6 0
-15 -5.7 0
-15 -5.4 0
-15 -5.1 0
-15 -4.8 0
-15 -4.5 0
-15 -4.2 0
-15 -3.9 0
-15 -3.6 0
-15 -3.3 0
-15 -3 0
-15 -2.7 0
-15 -2.4 0
-15 -2.1 0
-15 -1.8 0
-15 -1.5 0
-15 -1.2 0
-15 -0.9 0
-15 -0.6 0
-15 -0.3 0
-15 0 0
-15 0.3 0
-15 0.6 0
-15 0.9 0
-15 1.2 0
-15 1.5 0
-15 1.8 0
-15 2.1 0
-15 2.4 0
-15 2.7 0
-15 3 0
-15 3.3 0
-15 3.6 0
-15 3.9 0
-15 4.2 0
-15 4.5 0
-15 4.8 0
-15 5.1 0
-15 5.4 0
-15 5.7 0
-15 6 0
-15 6.3 0
-15 6.6 0
-15 6.9 0
-15 7.2 0
-15 7.5 0
-15 7.8 0
-15 8.1 0
-15 8.4 0
-15 8.7 0
-15 9 0
-15 9.3 0
-15 9.6 0
-15 9.9 0
-15 10.2 0
-15 10.5 0
-15 10.8 0
-15 11.1 0
-15 11.4 0
-15 11.7 0
-15 12 0
-15 12.3 0
-15 12.6 0
-15 12.9 0
-15 13.2 0
-15 13.5 0
-15 13.8 0
-15 14.1 0
-15 14.4 0
-15 14.7 0
-15 15 0
-14.7 -15 0
-14.7 -14.7 0
-14.7 -14.4 0
-14.7 -14.1 0
-14.7 -13.8 0
-14.7 -13.5 0
-14.7 -13.2 0
-14.7 -12.9 0
-14.7 -12.6 0
-14.7 -12.3 0
-14.7 -12 0
-14.7 -11.7 0
-14.7 -11.4 0
-14.7 -11.1 0
-14.7 -10.8 0
-14.7 -10.5 0
-14.7 -10.2 0
-14.7 -9.9 0
-14.7 -9.6 0
-14.7 -9.3 0
-14.7 -9 0
-14.7 -8.7 0
-14.7 -8.4 0
-14.7 -8.1 0
-14.7 -7.8 0
-14.7 -7.5 0
-14.7 -7.2 0
-14.7 -6.9 0
-14.7 -6.6 0
-14.7 -6.3 0
-14.7 -6 0
-14.7 -5.7 0
-14.7 -5.4 0
-14.7 -5.1 0
-14.7 -4.8 0
-14.7 -4.5 0
-14.7 -4.2 0
-14.7 -3.9 0
-14.7 -3.6 0
-14.7 -3.3 0
-14.7 -3 0
-14.7 -2.7 0
-14.7 -2.4 0
-14.7 -2.1 0
-14.7 -1.8 0
-14.7 -1.5 0
-14.7 -1.2 0
-14.7 -0.9 0
-14.7 -0.6 0
-14.7 -0.3 0
-14.7 0 0
-14.7 0.3 0
-14.7 0.6 0
-14.7 0.9 0
-14.7 1.2 0
-14.7 1.5 0
-14.7 1.8 0
-14.7 2.1 0
-14.7 2.4 0
-14.7 2.7 0
-14.7 3 0
-14.7 3.3 0
-14.7 3.6 0
-14.7 3.9 0
-14.7 4.2 0
-14.7 4.5 0
-14.7 4.8 0
-14.7 5.1 0
-14.7 5.4 0
-14.7 5.7 0
-14.7 6 0
-14.7 6.3 0
-14.7 6.6 0
-14.7 6.9 0
-14.7 7.2 0
-14.7 7.5 0
-14.7 7.8 0
-14.7 8.1 0
-14.7 8.4 0
-14.7 8.7 0
-14.7 9 0
-14.7 9.3 0
-14.7 9.6 0
-14.7 9.9 0
-14.7 10.2 0
-14.7 10.5 0
-14.7 10.8 0
-14.7 11.1 0
-14.7 11.4 0
-14.7 11.7 0
-14.7 12 0
-14.7 12.3 0
-14.7 12.6 0
-14.7 12.9 0
-14.7 13.2 0
-14.7 13.5 0
-14.7 13.8 0
-14.7 14.1 0
-14.7 14.4 0
-14.7 14.7 0
-14.7 15 0
-14.4 -15 0
-14.4 -14.7 0
-14.4 -14.4 0
-14.4 -14.1 0
-14.4 -13.8 0
-14.4 -13.5 0
-14.4 -13.2 0
-14.4 -12.9 0
-14.4 -12.6 0
-14.4 -12.3 0
-14.4 -12 0
-14.4 -11.7 0
-14.4 -11.4 0
-14.4 -11.1 0
-14.4 -10.8 0
-14.4 -10.5 0
-14.4 -10.2 0
-14.4 -9.9 0
-14.4 -9.6 0
-14.4 -9.3 0
-14.4 -9 0
-14.4 -8.7 0
-14.4 -8.4 0
-14.4 -8.1 0
-14.4 -7.8 0
-14.4 -7.5 0
-14.4 -7.2 0
-14.4 -6.9 0
-14.4 -6.6 0
-14.4 -6.3 0
-14.4 -6 0
-14.4 -5.7 0
-14.4 -5.4 0
-14.4 -5.1 0
-14.4 -4.8 0
-14.4 -4.5 0
-14.4 -4.2 0
-14.4 -3.9 0
-14.4 -3.6 0
-14.4 -3.3 0
-14.4 -3 0
-14.4 -2.7 0
-14.4 -2.4 0
-14.4 -2.1 0
-14.4 -1.8 0
-14.4 -1.5 0
-14.4 -1.2 0
-14.4 -0.9 0
-14.4 -0.6 0
-14.4 -0.3 0
-14.4 0 0
-14.4 0.3 0
-14.4 0.6 0
-14.4 0.9 0
-14.4 1.2 0
-14.4 1.5 0
-14.4 1.8 0
-14.4 2.1 0
-14.4 2.4 0
-14.4 2.7 0
-14.4 3 0
-14.4 3.3 0
-14.4 3.6 0
-14.4 3.9 0
-14.4 4.2 0
-14.4 4.5 0
-14.4 4.8 0
-14.4 5.1 0
-14.4 5.4 0
-14.4 5.7 0
-14.4 6 0
-14.4 6.3 0
-14.4 6.6 0
-14.4 6.9 0
-14.4 7.2 0
-14.4 7.5 0
-14.4 7.8 0
-14.4 8.1 0
-14.4 8.4 0
-14.4 8.7 0
-14.4 9 0
-14.4 9.3 0
-14.4 9.6 0
-14.4 9.9 0
-14.4 10.2 0
-14.4 10.5 0
-14.4 10.8 0
-14.4 11.1 0
-14.4 11.4 0
-14.4 11.7 0
-14.4 12 0
-14.4 12.3 0
-14.4 12.6 0
-14.4 12.9 0
-14.4 13.2 0
-14.4 13.5 0
-14.4 13.8 0
-14.4 14.1 0
-14.4 14.4 0
-14.4 14.7 0
-14.4 15 0
-14.1 -15 0
-14.1 -14.7 0
-14.1 -14.4 0
-14.1 -14.1 0
-14.1 -13.8 0
-14.1 -13.5 0
-14.1 -13.2 0
-14.1 -12.9 0
-14.1 -12.6 0
-14.1 -12.3 0
-14.1 -12 0
-14.1 -11.7 0
-14.1 -11.4 0
-14.1 -11.1 0
-14.1 -10.8 0
-14.1 -10.5 0
-14.1 -10.2 0
-14.1 -9.9 0
-14.1 -9.6 0
-14.1 -9.3 0
-14.1 -9 0
-14.1 -8.7 0
-14.1 -8.4 0
-14.1 -8.1 0
-14.1 -7.8 0
-14.1 -7.5 0
-14.1 -7.2 0
-14.1 -6.9 0
-14.1 -6.6 0
-14.1 -6.3 0
-14.1 -6 0
-14.1 -5.7 0
-14.1 -5.4 0
-14.1 -5.1 0
-14.1 -4.8 0
-14.1 -4.5 0
-14.1 -4.2 0
-14.1 -3.9 0
-14.1 -3.6 0
-14.1 -3.3 0
-14.1 -3 0
-14.1 -2.7 0
-14.1 -2.4 0
-14.1 -2.1 0
-14.1 -1.8 0
-14.1 -1.5 0
-14.1 -1.2 0
-14.1 -0.9 0
-14.1 -0.6 0
-14.1 -0.3 0
-14.1 0 0
-14.1 0.3 0
-14.1 0.6 0
-14.1 0.9 0
-14.1 1.2 0
-14.1 1.5 0
-14.1 1.8 0
-14.1 2.1 0
-14.1 2.4 0
-14.1 2.7 0
-14.1 3 0
-14.1 3.3 0
-14.1 3.6 0
-14.1 3.9 0
-14.1 4.2 0
-14.1 4.5 0
-14.1 4.8 0
-14.1 5.1 0
-14.1 5.4 0
-14.1 5.7 0
-14.1 6 0
-14.1 6.3 0
-14.1 6.6 0
-14.1 6.9 0
-14.1 7.2 0
-14.1 7.5 0
-14.1 7.8 0
-14.1 8.1 0
-14.1 8.4 0
-14.1 8.7 0
-14.1 9 0
-14.1 9.3 0
-14.1 9.6 0
-14.1 9.9 0
-14.1 10.2 0
-14.1 10.5 0
-14.1 10.8 0
-14.1 11.1 0
-14.1 11.4 0
-14.1 11.7 0
-14.1 12 0
-14.1 12.3 0
-14.1 12.6 0
-14.1 12.9 0
-14.1 13.2 0
-14.1 13.5 0
-14.1 13.8 0
-14.1 14.1 0
-14.1 14.4 0
-14.1 14.7 0
-14.1 15 0
-13.8 -15 0
-13.8 -14.7 0
-13.8 -14.4 0
-13.8 -14.1 0
-13.8 -13.8 0
-13.8 -13.5 0
-13.8 -13.2 0
-13.8 -12.9 0
-13.8 -12.6 0
-13.8 -12.3 0
-13.8 -12 0
-13.8 -11.7 0
-13.8 -11.4 0
-13.8 -11.1 0
-13.8 -10.8 0
-13.8 -10.5 0
-13.8 -10.2 0
-13.8 -9.9 0
-13.8 -9.6 0
-13.8 -9.3 0
-13.8 -9 0
-13.8 -8.7 0
-13.8 -8.4 0
-13.8 -8.1 0
-13.8 -7.8 0
-13.8 -7.5 0
-13.8 -7.2 0
-13.8 -6.9 0
-13.8 -6.6 0
-13.8 -6.3 0
-13.8 -6 0
-13.8 -5.7 0
-13.8 -5.4 0
-13.8 -5.1 0
-13.8 -4.8 0
-13.8 -4.5 0
-13.8 -4.2 0
-13.8 -3.9 0
-13.8 -3.6 0
-13.8 -3.3 0
-13.8 -3 0
-13.8 -2.7 0
-13.8 -2.4 0
-13.8 -2.1 0
-13.8 -1.8 0
-13.8 -1.5 0
-13.8 -1.2 0
-13.8 -0.9 0
-13.8 -0.6 0
-13.8 -0.3 0
-13.8 0 0
-13.8 0.3 0
-13.8 0.6 0
-13.8 0.9 0
-13.8 1.2 0
-13.8 1.5 0
-13.8 1.8 0
-13.8 2.1 0
-13.8 2.4 0
-13.8 2.7 0
-13.8 3 0
-13.8 3.3 0
-13.8 3.6 0
-13.8 3.9 0
-13.8 4.2 0
-13.8 4.5 0
-13.8 4.8 0
-13.8 5.1 0
-13.8 5.4 0
-13.8 5.7 0
-13.8 6 0
-13.8 6.3 0
-13.8 6.6 0
-13.8 6.9 0
-13.8 7.2 0
-13.8 7.5 0
-13.8 7.8 0
-13.8 8.1 0
-13.8 8.4 0
-13.8 8.7 0
-13.8 9 0
-13.8 9.3 0
-13.8 9.6 0
-13.8 9.9 0
-13.8 10.2 0
-13.8 10.5 0
-13.8 10.8 0
-13.8 11.1 0
-13.8 11.4 0
-13.8 11.7 0
-13.8 12 0
-13.8 12.3 0
-13.8 12.6 0
-13.8 12.9 0
-13.8 13.2 0
-13.8 13.5 0
-13.8 13.8 0
-13.8 14.1 0
-13.8 14.4 0
-13.8 14.7 0
-13.8 15 0
-13.5 -15 0
-13.5 -14.7 0
-13.5 -14.4 0
-13.5 -14.1 0
-13.5 -13.8 0
-13.5 -13.5 0
-13.5 -13.2 0
-13.5 -12.9 0
-13.5 -12.6 0
-13.5 -12.3 0
-13.5 -12 0
-13.5 -11.7 0
-13.5 -11.4 0
-13.5 -11.1 0
-13.5 -10.8 0
-13.5 -10.5 0
-13.5 -10.2 0
-13.5 -9.9 0
-13.5 -9.6 0
-13.5 -9.3 0
-13.5 -9 0
-13.5 -8.7 0
-13.5 -8.4 0
-13.5 -8.1 0
-13.5 -7.8 0
-13.5 -7.5 0
-13.5 -7.2 0
-13.5 -6.9 0
-13.5 -6.6 0
-13.5 -6.3 0
-13.5 -6 0
-13.5 -5.7 0
-13.5 -5.4 0
-13.5 -5.1 0
-13.5 -4.8 0
-13.5 -4.5 0
-13.5 -4.2 0
-13.5 -3.9 0
-13.5 -3.6 0
-13.5 -3.3 0
-13.5 -3 0
-13.5 -2.7 0
-13.5 -2.4 0
-13.5 -2.1 0
-13.5 -1.8 0
-13.5 -1.5 0
-13.5 -1.2 0
-13.5 -0.9 0
-13.5 -0.6 0
-13.5 -0.3 0
-13.5 0 0
-13.5 0.3 0
-13.5 0.6 0
-13.5 0.9 0
-13.5 1.2 0
-13.5 1.5 0
-13.5 1.8 0
-13.5 2.1 0
-13.5 2.4 0
-13.5 2.7 0
-13.5 3 0
-13.5 3.3 0
-13.5 3.6 0
-13.5 3.9 0
-13.5 4.2 0
-13.5 4.5 0
-13.5 4.8 0
-13.5 5.1 0
-13.5 5.4 0
-13.5 5.7 0
-13.5 6 0
-13.5 6.3 0
-13.5 6.6 0
-13.5 6.9 0
-13.5 7.2 0
-13.5 7.5 0
-13.5 7.8 0
-13.5 8.1 0
-13.5 8.4 0
-13.5 8.7 0
-13.5 9 0
-13.5 9.3 0
-13.5 9.6 0
-13.5 9.9 0
-13.5 10.2 0
-13.5 10.5 0
-13.5 10.8 0
-13.5 11.1 0
-13.5 11.4 0
-13.5 11.7 0
-13.5 12 0
-13.5 12.3 0
-13.5 12.6 0
-13.5 12.9 0
-13.5 13.2 0
-13.5 13.5 0
-13.5 13.8 0
-13.5 14.1 0
-13.5 14.4 0
-13.5 14.7 0
-13.5 15 0
-13.2 -15 0
-13.2 -14.7 0
-13.2 -14.4 0
-13.2 -14.1 0
-13.2 -13.8 0
-13.2 -13.5 0
-13.2 -13.2 0
-13.2 -12.9 0
-13.2 -12.6 0
-13.2 -12.3 0
-13.2 -12 0
-13.2 -11.7 0
-13.2 -11.4 0
-13.2 -11.1 0
-13.2 -10.8 0
-13.2 -10.5 0
-13.2 -10.2 0
-13.2 -9.9 0
-13.2 -9.6 0
-13.2 -9.3 0
-13.2 -9 0
-13.2 -8.7 0
-13.2 -8.4 0
-13.2 -8.1 0
-13.2 -7.8 0
-13.2 -7.5 0
-13.2 -7.2 0
-13.2 -6.9 0
-13.2 -6.6 0
-13.2 -6.3 0
-13.2 -6 0
-13.2 -5.7 0
-13.2 -5.4 0
-13.2 -5.1 0
-13.2 -4.8 0
-13.2 -4.5 0
-13.2 -4.2 0
-13.2 -3.9 0
-13.2 -3.6 0
-13.2 -3.3 0
-13.2 -3 0
-13.2 -2.7 0
-13.2 -2.4 0
-13.2 -2.1 0
-13.2 -1.8 0
-13.2 -1.5 0
-13.2 -1.2 0
-13.2 -0.9 0
-13.2 -0.6 0
-13.2 -0.3 0
-13.2 0 0
-13.2 0.3 0
-13.2 0.6 0
-13.2 0.9 0
-13.2 1.2 0
-13.2 1.5 0
-13.2 1.8 0
-13.2 2.1 0
-13.2 2.4 0
-13.2 2.7 0
-13.2 3 0
-13.2 3.3 0
-13.2 3.6 0
-13.2 3.9 0
-13.2 4.2 0
-13.2 4.5 0
-13.2 4.8 0
-13.2 5.1 0
-13.2 5.4 0
-13.2 5.7 0
-13.2 6 0
-13.2 6.3 0
-13.2 6.6 0
-13.2 6.9 0
-13.2 7.2 0
-13.2 7.5 0
-13.2 7.8 0
-13.2 8.1 0
-13.2 8.4 0
-13.2 8.7 0
-13.2 9 0
-13.2 9.3 0
-13.2 9.6 0
-13.2 9.9 0
-13.2 10.2 0
-13.2 10.5 0
-13.2 10.8 0
-13.2 11.1 0
-13.2 11.4 0
-13.2 11.7 0
-13.2 12 0
-13.2 12.3 0
-13.2 12.6 0
-13.2 12.9 0
-13.2 13.2 0
-13.2 13.5 0
-13.2 13.8 0
-13.2 14.1 0
-13.2 14.4 0
-13.2 14.7 0
-13.2 15 0
-12.9 -15 0
-12.9 -14.7 0
-12.9 -14.4 0
-12.9 -14.1 0
-12.9 -13.8 0
-12.9 -13.5 0
-12.9 -13.2 0
-12.9 -12.9 0
-12.9 -12.6 0
-12.9 -12.3 0
-12.9 -12 0
-12.9 -11.7 0
-12.9 -11.4 0
-12.9 -11.1 0
-12.9 -10.8 0
-12.9 -10.5 0
-12.9 -10.2 0
-12.9 -9.9 0
-12.9 -9.6 0
-12.9 -9.3 0
-12.9 -9 0
-12.9 -8.7 0
-12.9 -8.4 0
-12.9 -8.1 0
-12.9 -7.8 0
-12.9 -7.5 0
-12.9 -7.2 0
-12.9 -6.9 0
-12.9 -6.6 0
-12.9 -6.3 0
-12.9 -6 0
-12.9 -5.7 0
-12.9 -5.4 0
-12.9 -5.1 0
-12.9 -4.8 0
-12.9 -4.5 0
-12.9 -4.2 0
-12.9 -3.9 0
-12.9 -3.6 0
-12.9 -3.3 0
-12.9 -3 0
-12.9 -2.7 0
-12.9 -2.4 0
-12.9 -2.1 0
-12.9 -1.8 0
-12.9 -1.5 0
-12.9 -1.2 0
-12.9 -0.9 0
-12.9 -0.6 0
-12.9 -0.3 0
-12.9 0 0
-12.9 0.3 0
-12.9 0.6 0
-12.9 0.9 0
-12.9 1.2 0
-12.9 1.5 0
-12.9 1.8 0
-12.9 2.1 0
-12.9 2.4 0
-12.9 2.7 0
-12.9 3 0
-12.9 3.3 0
-12.9 3.6 0
-12.9 3.9 0
-12.9 4.2 0
-12.9 4.5 0
-12.9 4.8 0
-12.9 5.1 0
-12.9 5.4 0
-12.9 5.7 0
-12.9 6 0
-12.9 6.3 0
-12.9 6.6 0
-12.9 6.9 0
-12.9 7.2 0
-12.9 7.5 0
-12.9 7.8 0
-12.9 8.1 0
-12.9 8.4 0
-12.9 8.7 0
-12.9 9 0
[...]
            <PointData>
                <DataArray type="Float64" Name="c1" format="ascii">
0.0039817 0.00398681 0.00400212 0.00402769 0.00406356 0.0041098 0.00416652 0.00423382 0.00431184 0.00440072 0.00450061 0.00461167 0.00473406 0.00486795 0.00501347 0.00517073 0.00533983 0.00552079 0.00571357 0.00591803 0.00613391 0.00636082 0.00659816 0.0068451 0.00710053 0.00736299 0.00763053 0.00790044 0.00816863 0.00842897 0.00867299 0.00888325 0.00906671 0.0092571 0.0094612 0.00967759 0.00990483 0.0101409 0.0103795 0.010611 0.0108421 0.0110501 0.0112208 0.0113808 0.0115551 0.011743 0.0119522 0.0121801 0.0124193 0.0126564 0.0128741 0.0130551 0.0131825 0.0132624 0.0133183 0.0133745 0.0134411 0.0134995 0.0135565 0.013556 0.0134484 0.0133039 0.0131427 0.0129718 0.01278 0.0125815 0.012375 0.0121578 0.0119285 0.0117187 0.0115016 0.0112645 0.0110019 0.0106799 0.0102925 0.0099062 0.00953628 0.00918432 0.00884973 0.00853186 0.00823018 0.00794434 0.00767412 0.0074194 0.00718013 0.00695622 0.00674763 0.00655425 0.00637598 0.00621269 0.00606425 0.00593051 0.00581132 0.00570654 0.00561603 0.00553967 0.00547735 0.00542898 0.00539448 0.0053738 0.00536691 
0.00398252 0.00398762 0.00400295 0.00402853 0.00406443 0.00411071 0.00416746 0.00423482 0.0043129 0.00440185 0.00450182 0.00461298 0.00473549 0.0048695 0.00501517 0.00517261 0.00534191 0.0055231 0.00571614 0.00592091 0.00613716 0.00636449 0.00660234 0.00684989 0.00710609 0.00736953 0.00763843 0.00791032 0.00818151 0.00844607 0.00869921 0.00890685 0.00907444 0.00926316 0.00947021 0.00968955 0.00992012 0.0101612 0.0104051 0.0106312 0.0108655 0.0110777 0.0112365 0.0113872 0.0115663 0.0117563 0.0119715 0.0122034 0.0124479 0.0126908 0.0129131 0.0130989 0.0132201 0.0132863 0.0133307 0.0133824 0.0134611 0.0135165 0.0135985 0.0136214 0.0134791 0.0133256 0.0131617 0.0129965 0.0127974 0.0125982 0.0123911 0.0121728 0.0119275 0.0117318 0.0115224 0.0112896 0.0110478 0.0107347 0.0103149 0.00991842 0.00954541 0.00919248 0.00885746 0.00853924 0.00823716 0.00795087 0.00768018 0.00742499 0.00718524 0.0069609 0.00675189 0.00655814 0.00637953 0.00621595 0.00606724 0.00593326 0.00581387 0.00570891 0.00561826 0.00554178 0.00547936 0.00543091 0.00539636 0.00537565 0.00536875 
0.00398495 0.00399007 0.00400543 0.00403106 0.00406703 0.00411341 0.00417029 0.0042378 0.00431606 0.00440522 0.00450545 0.0046169 0.00473974 0.00487415 0.00502027 0.00517823 0.00534813 0.00553001 0.00572385 0.00592953 0.00614685 0.00637544 0.00661478 0.00686415 0.00712258 0.00738889 0.00766163 0.00793919 0.00821902 0.00849228 0.00872212 0.0088991 0.00908285 0.00927938 0.00949384 0.00971864 0.00995206 0.0101976 0.010453 0.010719 0.0109667 0.0111387 0.0112497 0.0113903 0.0116041 0.0118263 0.0120348 0.0122727 0.0125253 0.012768 0.0129865 0.0131566 0.0132572 0.0133212 0.0133598 0.0133882 0.0134359 0.0134886 0.0135514 0.013642 0.0135427 0.0133832 0.0132095 0.0130289 0.0128058 0.0125955 0.0123865 0.0121808 0.0119462 0.0117074 0.0114914 0.0112517 0.0110005 0.0107475 0.0103603 0.00994888 0.00957128 0.00921673 0.00888075 0.00856149 0.0082582 0.00797054 0.0076984 0.00744175 0.0072006 0.00697492 0.00676468 0.0065698 0.00639018 0.00622569 0.00607618 0.0059415 0.0058215 0.00571603 0.00562493 0.00554809 0.00548538 0.00543671 0.005402 0.0053812 0.00537427 
0.00398899 0.00399413 0.00400954 0.00403526 0.00407136 0.0041179 0.00417499 0.00424274 0.00432131 0.00441082 0.00451146 0.0046234 0.0047468 0.00488186 0.00502872 0.00518755 0.00535843 0.00554144 0.00573658 0.00594377 0.00616282 0.00639345 0.00663521 0.0068875 0.00714954 0.00742034 0.00769886 0.00798474 0.00828146 0.00853736 0.00872808 0.00891666 0.00910909 0.00931066 0.00953763 0.00977639 0.0100142 0.0102693 0.0105404 0.0107994 0.0110268 0.0112123 0.0113555 0.0114866 0.0116721 0.0119294 0.0121624 0.0124217 0.01268 0.0129177 0.0131396 0.0132867 0.0133799 0.0134473 0.0134884 0.0135062 0.0135214 0.0135606 0.0135968 0.0136455 0.0136191 0.0134768 0.0132962 0.0130791 0.0128495 0.0126369 0.0124238 0.0122056 0.0120052 0.011756 0.0115095 0.0112549 0.0109948 0.0107341 0.0103885 0.00998704 0.00961156 0.00925698 0.00892001 0.00859909 0.00829366 0.00800358 0.00772892 0.00746976 0.0072262 0.00699827 0.00678595 0.00658918 0.00640786 0.00624186 0.00609102 0.00595517 0.00583416 0.00572782 0.00563599 0.00555855 0.00549536 0.00544632 0.00541135 0.00539039 0.00538341 
0.00399461 0.00399977 0.00401525 0.0040411 0.00407737 0.00412414 0.00418151 0.00424962 0.0043286 0.0044186 0.00451982 0.00463242 0.0047566 0.00489255 0.00504045 0.00520046 0.0053727 0.00555727 0.00575419 0.00596342 0.00618482 0.00641818 0.00666318 0.00691939 0.00718627 0.00746303 0.0077483 0.00803941 0.00833316 0.0085814 0.00876687 0.00895824 0.00915656 0.0093507 0.00960669 0.00987156 0.0101021 0.0103695 0.0106517 0.0109018 0.0111281 0.0113234 0.0114926 0.0116369 0.0118381 0.0121072 0.0123747 0.0126375 0.0128748 0.0131357 0.0133515 0.0135095 0.0136008 0.0136606 0.0137192 0.0137206 0.0137175 0.0137323 0.0137239 0.0137457 0.0137517 0.0136279 0.0134439 0.0131834 0.0129361 0.0127368 0.0125216 0.0122899 0.0120638 0.0118209 0.0115615 0.0112922 0.0110209 0.0107547 0.0104271 0.0100379 0.00966793 0.00931457 0.00897638 0.00865288 0.00834411 0.00805035 0.00777191 0.00750908 0.00726204 0.00703088 0.00681561 0.00661618 0.00643247 0.00626435 0.00611164 0.00597417 0.00585175 0.0057442 0.00565136 0.00557308 0.00550921 0.00545966 0.00542433 0.00540316 0.00539611 
0.00400178 0.00400696 0.00402254 0.00404854 0.00408503 0.00413209 0.00418983 0.00425838 0.00433788 0.00442851 0.00453045 0.0046439 0.00476907 0.00490615 0.00505535 0.00521686 0.00539082 0.00557734 0.0057765 0.00598826 0.00621255 0.00644922 0.0066981 0.00695901 0.00723188 0.00751656 0.00781201 0.00811228 0.00837852 0.00860387 0.00881294 0.00902035 0.00923689 0.00945889 0.00970313 0.00995693 0.0102141 0.0104859 0.0107792 0.0110466 0.0112685 0.0114698 0.0116761 0.0118585 0.0120678 0.012337 0.0126154 0.012888 0.0131508 0.0134202 0.0136155 0.0137852 0.0138937 0.0139608 0.014003 0.0140315 0.0140418 0.0140373 0.0140097 0.0139966 0.0139751 0.0138586 0.0136699 0.01341 0.0131574 0.0129243 0.0126868 0.0124443 0.0121961 0.0119162 0.0116482 0.0113632 0.0110776 0.0107868 0.0104817 0.0101081 0.00974488 0.00939243 0.00905181 0.00872411 0.00841031 0.00811126 0.00782759 0.00755976 0.00730807 0.00707265 0.00685353 0.00665063 0.00646385 0.006293 0.0061379 0.00599835 0.00587413 0.00576504 0.00567091 0.00559156 0.00552684 0.00547663 0.00544084 0.0054194 0.00541225 
0.00401044 0.00401566 0.00403135 0.00405754 0.0040943 0.0041417 0.00419988 0.00426895 0.00434909 0.00444047 0.00454329 0.00465775 0.00478409 0.00492254 0.0050733 0.0052366 0.00541262 0.00560148 0.00580328 0.00601803 0.00624568 0.00648612 0.00673929 0.0070053 0.00728474 0.00757905 0.00789095 0.00817515 0.00841099 0.00864189 0.00886766 0.00909419 0.00932448 0.00956109 0.00980997 0.0100693 0.0103349 0.0106041 0.0109387 0.0112304 0.0114321 0.0116295 0.0118672 0.0121093 0.0123343 0.0125969 0.0128881 0.0131853 0.0134674 0.0137098 0.0139177 0.0140738 0.0142079 0.0142979 0.0143441 0.0143983 0.0144265 0.014429 0.0144144 0.0143832 0.0143161 0.014185 0.0139938 0.0137516 0.0134999 0.0132045 0.0129371 0.0126675 0.01241 0.0121122 0.0117666 0.0114666 0.0111826 0.0108802 0.0105591 0.0102069 0.00984893 0.00949457 0.00914867 0.00881416 0.00849302 0.00818667 0.00789604 0.00762175 0.00736415 0.0071234 0.00689949 0.00669234 0.00650178 0.00632761 0.00616961 0.00602752 0.00590112 0.00579018 0.00569448 0.00561384 0.00554809 0.0054971 0.00546075 0.00543897 0.00543172 
0.00402055 0.00402582 0.00404163 0.00406804 0.0041051 0.00415291 0.00421159 0.00428128 0.00436215 0.00445439 0.00455822 0.00467387 0.00480157 0.00494158 0.00509416 0.00525954 0.00543793 0.0056295 0.00583435 0.00605252 0.00628395 0.00652853 0.00678621 0.00705723 0.00734275 0.0076448 0.0079588 0.00823316 0.00846431 0.00869867 0.00893502 0.00917486 0.00941916 0.00966872 0.00992871 0.0102014 0.0104852 0.0107837 0.011106 0.011395 0.011641 0.0118701 0.0121011 0.012347 0.012585 0.0128483 0.0131586 0.0135158 0.0138333 0.014054 0.014245 0.0144105 0.0145541 0.0146479 0.0147275 0.0148264 0.0148704 0.014873 0.0148688 0.0148338 0.0147461 0.0145963 0.0143943 0.0141305 0.0138658 0.0135514 0.0132462 0.0129491 0.0126669 0.0124161 0.0120443 0.0116829 0.0113535 0.0110457 0.0107081 0.0103514 0.00998758 0.0096249 0.00926909 0.00892414 0.00859275 0.00827672 0.00797721 0.00769486 0.00743003 0.00718283 0.0069532 0.00674099 0.00654598 0.00636791 0.0062065 0.00606146 0.00593252 0.0058194 0.00572188 0.00563974 0.00557279 0.00552088 0.00548389 0.00546173 0.00545434 
0.00403204 0.00403736 0.00405332 0.00407997 0.00411738 0.00416564 0.00422489 0.00429527 0.00437697 0.00447019 0.00457515 0.00469212 0.00482136 0.00496314 0.00511776 0.00528548 0.00546656 0.00566119 0.00586951 0.00609155 0.00632723 0.00657637 0.00683879 0.00711475 0.00740654 0.00772253 0.00802754 0.00828661 0.00852839 0.00876816 0.00901287 0.00926562 0.00952431 0.00978596 0.0100594 0.0103516 0.0106585 0.0109822 0.0112991 0.011602 0.0118793 0.0121418 0.0123776 0.0126194 0.0128542 0.01312 0.013471 0.0139023 0.0142629 0.0145142 0.0146939 0.0148282 0.0149767 0.0151015 0.0152177 0.0153081 0.0153696 0.0154102 0.0154036 0.0153644 0.0152631 0.0150833 0.01488 0.0145933 0.0142514 0.0139286 0.0135987 0.0132787 0.0129797 0.0127148 0.0123901 0.0120085 0.0116406 0.0112822 0.010917 0.0105429 0.0101637 0.00978548 0.00941422 0.00905452 0.00870952 0.00838121 0.00807073 0.00777868 0.00750528 0.00725052 0.00701426 0.00679622 0.00659611 0.00641358 0.00624828 0.00609988 0.00596805 0.00585248 0.00575289 0.00566905 0.00560074 0.00554779 0.00551007 0.00548747 0.00547994 
0.00404484 0.00405021 0.00406634 0.00409326 0.00413105 0.00417982 0.00423969 0.00431084 0.00439345 0.00448774 0.00459396 0.00471238 0.00484331 0.00498705 0.00514391 0.00531423 0.00549829 0.00569633 0.00590854 0.00613497 0.0063755 0.00662984 0.00689745 0.00717779 0.00747098 0.00777823 0.00809516 0.00837204 0.00860679 0.008847 0.00909594 0.00936454 0.00964154 0.00991306 0.0101977 0.0105146 0.010845 0.0111719 0.0115021 0.0118324 0.0121336 0.0124108 0.0126747 0.0129339 0.0131742 0.0134514 0.0138411 0.0142666 0.0147044 0.0150131 0.0152014 0.0153636 0.0155458 0.0156937 0.0158016 0.0158515 0.0159362 0.0160104 0.0159977 0.015931 0.0158186 0.0156148 0.0153751 0.0150894 0.0147251 0.0143626 0.0139933 0.0136464 0.013327 0.0130543 0.0127657 0.0123625 0.0119598 0.0115668 0.0111753 0.0107793 0.0103776 0.00997672 0.00958397 0.00920483 0.00884269 0.00849942 0.00817592 0.00787254 0.00758928 0.00732592 0.00708214 0.00685756 0.00665173 0.00646422 0.0062946 0.00614247 0.00600742 0.00588912 0.00578725 0.00570152 0.0056317 0.0055776 0.00553907 0.00551599 0.00550831 
0.00405888 0.00406431 0.0040806 0.00410782 0.00414603 0.00419534 0.0042559 0.00432788 0.00441147 0.00450693 0.00461451 0.00473451 0.00486727 0.00501312 0.00517243 0.00534556 0.00553288 0.00573469 0.00595123 0.00618264 0.00642883 0.0066894 0.00696345 0.00724938 0.00754519 0.00784992 0.00816645 0.00845188 0.00869311 0.00893147 0.00917275 0.00946351 0.00977694 0.010056 0.0103439 0.0106817 0.0110222 0.0113552 0.0117138 0.0120843 0.0124037 0.0127023 0.0130142 0.0132993 0.0135605 0.0138472 0.0142414 0.0146709 0.0151271 0.0155065 0.0157466 0.0159901 0.0161972 0.0163491 0.0164531 0.0165211 0.0165756 0.0166116 0.0166114 0.0165125 0.0163594 0.0161593 0.0158773 0.0155656 0.0152076 0.0148278 0.014435 0.0140475 0.0136931 0.0133851 0.0131223 0.0127566 0.0123104 0.0118903 0.0114783 0.0110611 0.0106297 0.0101978 0.0097769 0.0093735 0.00899079 0.00863006 0.00829166 0.0079755 0.00768121 0.0074083 0.00715623 0.00692444 0.00671234 0.00651939 0.00634505 0.00618884 0.0060503 0.00592903 0.00582466 0.00573688 0.00566543 0.00561008 0.00557066 0.00554706 0.0055392 
0.00407406 0.00407955 0.00409604 0.00412357 0.00416222 0.00421212 0.00427341 0.00434628 0.00443093 0.00452763 0.00463666 0.00475835 0.00489305 0.00504116 0.00520308 0.00537924 0.00557006 0.00577595 0.00599727 0.0062343 0.00648715 0.00675553 0.00703834 0.00733286 0.00763361 0.00793389 0.00823522 0.00853183 0.0087886 0.00902151 0.00926759 0.00956217 0.00988633 0.0101964 0.0105192 0.0108529 0.011189 0.0115452 0.0119369 0.012342 0.012692 0.0130301 0.0134068 0.0137478 0.0140256 0.0143194 0.0147164 0.0151471 0.0155685 0.0159981 0.0163543 0.0166764 0.0169061 0.0170773 0.017193 0.0172615 0.0172923 0.0172917 0.0172525 0.0171401 0.0169563 0.0167085 0.0164175 0.0160885 0.0157187 0.0153207 0.014906 0.0144871 0.0140892 0.0137335 0.0134038 0.0130853 0.012675 0.0122454 0.011826 0.0113958 0.0109212 0.0104462 0.00998964 0.00955753 0.00915142 0.00877126 0.00841648 0.00808635 0.00778007 0.00749681 0.00723579 0.00699623 0.00677739 0.00657858 0.00639918 0.0062386 0.00609631 0.00597185 0.00586481 0.00577484 0.00570162 0.00564493 0.00560457 0.00558041 0.00557236 
0.0040903 0.00409585 0.00411254 0.0041404 0.00417954 0.00423006 0.00429212 0.00436592 0.00445169 0.00454971 0.00466027 0.00478373 0.00492049 0.00507097 0.00523564 0.00541498 0.0056095 0.00581973 0.00604621 0.00628947 0.00655003 0.00682816 0.00712337 0.00743296 0.00774657 0.00804152 0.00833288 0.00862325 0.00887551 0.00911672 0.00938104 0.00967186 0.00999028 0.0103235 0.0106692 0.0110229 0.0113818 0.0117564 0.0121553 0.0125815 0.0130022 0.0134024 0.0138169 0.0142134 0.0145525 0.014877 0.0152889 0.0157143 0.0161347 0.0165692 0.0170033 0.0173867 0.0176611 0.0178644 0.0179986 0.0180663 0.0180731 0.0180431 0.0179792 0.0178429 0.0176251 0.0173309 0.0170078 0.0166596 0.0162701 0.0158476 0.0154007 0.014948 0.0145077 0.0140972 0.0137081 0.0133257 0.0129091 0.0125143 0.0121112 0.0117054 0.0112513 0.0107146 0.0102157 0.00975228 0.00932134 0.00892068 0.0085486 0.0082037 0.00788472 0.00759051 0.00732 0.00707222 0.00684624 0.00664125 0.00645649 0.00629129 0.00614505 0.00601722 0.00590736 0.00581506 0.00573999 0.00568188 0.00564052 0.00561576 0.00560752 
0.00410749 0.00411312 0.00413001 0.00415823 0.00419786 0.00424903 0.00431191 0.0043867 0.00447364 0.00457302 0.00468519 0.0048105 0.0049494 0.00510235 0.00526987 0.0054525 0.00565087 0.00586561 0.00609747 0.00634734 0.0066163 0.0069057 0.00721709 0.00755337 0.00787255 0.00814546 0.00842367 0.00869339 0.00894745 0.00921505 0.00949584 0.00979231 0.0101137 0.0104627 0.0108323 0.0112103 0.0115925 0.0119814 0.0124031 0.0128698 0.0133271 0.0137787 0.01423 0.0146652 0.0150713 0.0154896 0.015964 0.0163893 0.01682 0.0172654 0.0177169 0.0181417 0.0184637 0.0187083 0.0188654 0.0189349 0.0189234 0.0188708 0.0187914 0.0186342 0.0183855 0.018047 0.0176629 0.0172871 0.0168714 0.0164176 0.0159318 0.0154326 0.0149439 0.0144828 0.0140457 0.013636 0.0131781 0.0127315 0.0123261 0.0119143 0.011505 0.0109838 0.0104446 0.00995188 0.00949694 0.00907583 0.00868616 0.00832606 0.00799394 0.00768835 0.00740799 0.00715165 0.00691825 0.00670682 0.00651648 0.00634646 0.00619608 0.00606474 0.00595193 0.0058572 0.00578019 0.0057206 0.00567819 0.00565282 0.00564437 
0.00412553 0.00413123 0.00414835 0.00417693 0.00421709 0.00426894 0.00433266 0.00440847 0.00449663 0.00459744 0.00471126 0.00483849 0.00497959 0.00513508 0.00530553 0.00549154 0.00569382 0.00591312 0.00615039 0.00640682 0.00668406 0.00698437 0.00731015 0.00765873 0.00796194 0.00822774 0.00850194 0.00877159 0.00904271 0.00932956 0.00962661 0.00993428 0.0102591 0.0106196 0.0110146 0.0114159 0.011825 0.012247 0.0127156 0.0131921 0.0136851 0.0141758 0.0146681 0.0151493 0.0156365 0.0161425 0.0166512 0.0171189 0.0175843 0.0180485 0.0185157 0.0189646 0.0193217 0.0196015 0.0197805 0.0198539 0.0198422 0.01979 0.0196923 0.019519 0.0192515 0.0188841 0.0184463 0.018013 0.0175549 0.0170526 0.016511 0.0159365 0.0153983 0.0148874 0.0143977 0.0139287 0.0134884 0.0130143 0.012572 0.012142 0.0117205 0.0112274 0.010666 0.0101516 0.00967532 0.00923456 0.0088274 0.00845197 0.00810649 0.0077893 0.00749885 0.00723374 0.00699271 0.00677465 0.00657857 0.0064036 0.00624896 0.006114 0.00599815 0.00590091 0.00582189 0.00576077 0.00571728 0.00569126 0.0056826 
0.00414432 0.0041501 0.00416744 0.0041964 0.0042371 0.00428965 0.00435425 0.00443112 0.00452053 0.00462281 0.00473833 0.00486753 0.00501089 0.00516898 0.0053424 0.00553183 0.00573804 0.00596187 0.00620439 0.00646695 0.00675157 0.00706174 0.00740554 0.00774196 0.00803527 0.00832105 0.00860138 0.00887699 0.00916133 0.00946523 0.00978048 0.0101025 0.0104381 0.0108186 0.0112303 0.0116433 0.0120819 0.0125525 0.0130513 0.0135554 0.014079 0.0146081 0.0151487 0.0156804 0.0162234 0.0168153 0.0173747 0.0179072 0.0184451 0.0189654 0.0194327 0.0199115 0.0203 0.0205752 0.0207548 0.020834 0.0208279 0.0207656 0.0206594 0.0204837 0.0202131 0.0198236 0.0193576 0.0188598 0.0183269 0.0177494 0.0171337 0.0164848 0.0158777 0.0153125 0.0147706 0.0142479 0.0137661 0.0132898 0.0128294 0.0123842 0.0119483 0.0114546 0.0108921 0.0103522 0.00985533 0.00939531 0.00897079 0.00858004 0.00822115 0.00789227 0.00759164 0.00731766 0.00706891 0.00684413 0.00664222 0.00646219 0.00630322 0.00616456 0.0060456 0.00594581 0.00586474 0.00580204 0.00575746 0.00573078 0.0057219 
0.00416374 0.00416959 0.00418717 0.00421653 0.00425777 0.00431105 0.00437655 0.00445451 0.0045452 0.00464899 0.00476625 0.00489746 0.00504312 0.00520384 0.00538028 0.00557315 0.00578328 0.00601157 0.00625908 0.00652708 0.00681708 0.00713048 0.0074667 0.00781416 0.00814114 0.00843576 0.00871987 0.00900259 0.00930147 0.00962083 0.00996089 0.0102994 0.0106532 0.0110468 0.0114684 0.011911 0.0123865 0.0128971 0.0134333 0.013976 0.0145285 0.0150962 0.0156718 0.0162818 0.0168931 0.0175285 0.0181837 0.0188228 0.0194053 0.0199821 0.0205137 0.0210044 0.0213985 0.0216757 0.0218508 0.0219235 0.0219056 0.0217997 0.021676 0.021506 0.0212221 0.0207932 0.0202861 0.0197281 0.0191255 0.0184656 0.017771 0.0170607 0.0163819 0.0157583 0.0151671 0.0146025 0.0140811 0.0135749 0.0130953 0.0126347 0.0121978 0.0116876 0.0111095 0.0105544 0.0100363 0.00955669 0.00911483 0.00870886 0.00833668 0.0079962 0.00768543 0.00740261 0.00714613 0.00691461 0.00670683 0.00652173 0.00635837 0.00621599 0.00609388 0.0059915 0.00590835 0.00584407 0.00579836 0.00577102 0.00576192 
0.00418367 0.0041896 0.00420742 0.00423718 0.004279 0.00433301 0.00439943 0.0044785 0.00457051 0.00467583 0.00479487 0.00492811 0.00507611 0.0052395 0.00541897 0.0056153 0.00582934 0.00606204 0.00631444 0.00658773 0.00688316 0.0072017 0.00754282 0.00790112 0.00826035 0.00856715 0.00884641 0.00914114 0.0094472 0.00980231 0.0101716 0.0105197 0.0108885 0.0112895 0.0117293 0.0121998 0.0127078 0.0132576 0.0138341 0.0144307 0.0150344 0.0156491 0.0162756 0.0169319 0.0176187 0.0183381 0.0190911 0.0198128 0.0204737 0.0211179 0.0216967 0.022199 0.0226094 0.022894 0.0230684 0.0231311 0.0230794 0.0229786 0.0228298 0.0225767 0.0222259 0.0217665 0.0212112 0.0205806 0.0199007 0.0191728 0.0184087 0.0176551 0.016926 0.0162322 0.0155928 0.0149968 0.0144215 0.0138742 0.0133663 0.0128841 0.0124354 0.0119532 0.0113414 0.0107584 0.0102165 0.0097169 0.00925784 0.00883698 0.00845183 0.0081 0.0077793 0.00748776 0.00722365 0.00698545 0.00677184 0.00658166 0.00641394 0.00626782 0.00614258 0.00603759 0.00595237 0.00588649 0.00583966 0.00581164 0.00580232 