<?xml version="1.0"?>
<VTKFile type="StructuredGrid" version="0.1">
    <StructuredGrid WholeExtent="0 100 0 100 0 0">
        <Piece Extent="0 100 0 100 0 0">
            <Points>
                <DataArray type="Float64" NumberOfComponents="3" format="ascii">
-15 -15 0
-15 -14.7 0
-15 -14.4 0
-15 -14.1 0
-15 -13.8 0
-15 -13.5 0
-15 -13.2 0
-15 -12.9 0
-15 -12.6 0
-15 -12.3 0
-15 -12 0
-15 -11.7 0
-15 -11.4 0
-15 -11.1 0
-15 -10.8 0
-15 -10.5 0
-15 -10.2 0
-15 -9.9 0
-15 -9.6 0
-15 -9.3 0
-15 -9 0
-15 -8.7 0
-15 -8.4 0
-15 -8.1 0
-15 -7.8 0
-15 -7.5 0
-15 -7.2 0
-15 -6.9 0
-15 -6.6 0
-15 -6.3 0
-15 -6 0
-15 -5.7 0
-15 -5.4 0
-15 -5.1 0
-15 -4.8 0
-15 -4.5 0
-15 -4.2 0
-15 -3.9 0
-15 -3.6 0
-15 -3.3 0
-15 -3 0
-15 -2.7 0
-15 -2.4 0
-15 -2.1 0
-15 -1.8 0
-15 -1.5 0
-15 -1.2 0
-15 -0.9 0
-15 -0.6 0
-15 -0.3 0
-15 0 0
-15 0.3 0
-15 0.6 0
-15 0.9 0
-15 1.2 0
-15 1.5 0
-15 1.8 0
-15 2.1 0
-15 2.4 0
-15 2.7 0
-15 3 0
-15 3.3 0
-15 3.6 0
-15 3.9 0
-15 4.2 0
-15 4.5 0
-15 4.8 0
-15 5.1 0
-15 5.4 0
-15 5.7 0
-15 6 0
-15 6.3 0
-15 6.6 0
-15 6.9 0
-15 7.2 0
-15 7.5 0
-15 7.8 0
-15 8.1 0
-15 8.4 0
-15 8.7 0
-15 9 0
-15 9.3 0
-15 9.6 0
-15 9.9 0
-15 10.2 0
-15 10.5 0
-15 10.8 0
-15 11.1 0
-15 11.4 0
-15 11.7 0
-15 12 0
-15 12.3 0
-15 12.6 0
-15 12.9 0
-15 13.2 0
-15 13.5 0
-15 13.8 0
-15 14.1 0
-15 14.4 0
-15 14.7 0
-15 15 0
-14.7 -15 0
-14.7 -14.7 0
-14.7 -14.4 0
-14.7 -14.1 0
-14.7 -13.8 0
-14.7 -13.5 0
-14.7 -13.2 0
-14.7 -12.9 0
-14.7 -12.6 0
-14.7 -12.3 0
-14.7 -12 0
-14.7 -11.7 0
-14.7 -11.4 0
-14.7 -11.1 0
-14.7 -10.8 0
-14.7 -10.5 0
-14.7 -10.2 0
-14.7 -9.9 0
-14.7 -9.6 0
-14.7 -9.3 0
-14.7 -9 0
-14.7 -8.7 0
-14.7 -8.4 0
-14.7 -8.1 0
-14.7 -7.8 0
-14.7 -7.5 0
-14.7 -7.2 0
-14.7 -6.9 0
-14.7 -6.6 0
-14.7 -6.3 0
-14.7 -6 0
-14.7 -5.7 0
-14.7 -5.4 0
-14.7 -5.1 0
-14.7 -4.8 0
-14.7 -4.5 0
-14.7 -4.2 0
-14.7 -3.9 0
-14.7 -3.6 0
-14.7 -3.3 0
-14.7 -3 0
-14.7 -2.7 0
-14.7 -2.4 0
-14.7 -2.1 0
-14.7 -1.8 0
-14.7 -1.5 0
-14.7 -1.2 0
-14.7 -0.9 0
-14.7 -0.6 0
-14.7 -0.3 0
-14.7 0 0
-14.7 0.3 0
-14.7 0.6 0
-14.7 0.9 0
-14.7 1.2 0
-14.7 1.5 0
-14.7 1.8 0
-14.7 2.1 0
-14.7 2.4 0
-14.7 2.7 0
-14.7 3 0
-14.7 3.3 0
-14.7 3.6 0
-14.7 3.9 0
-14.7 4.2 0
-14.7 4.5 0
-14.7 4.8 0
-14.7 5.1 0
-14.7 5.4 0
-14.7 5.7 0
-14.7 6 0
-14.7 6.3 0
-14.7 6.6 0
-14.7 6.9 0
-14.7 7.2 0
-14.7 7.5 0
-14.7 7.8 0
-14.7 8.1 0
-14.7 8.4 0
-14.7 8.7 0
-14.7 9 0
-14.7 9.3 0
-14.7 9.6 0
-14.7 9.9 0
-14.7 10.2 0
-14.7 10.5 0
-14.7 10.8 0
-14.7 11.1 0
-14.7 11.4 0
-14.7 11.7 0
-14.7 12 0
-14.7 12.3 0
-14.7 12.6 0
-14.7 12.9 0
-14.7 13.2 0
-14.7 13.5 0
-14.7 13.8 0
-14.7 14.1 0
-14.7 14.4 0
-14.7 14.7 0
-14.7 15 0
-14.4 -15 0
-14.4 -14.7 0
-14.4 -14.4 0
-14.4 -14.1 0
-14.4 -13.8 0
-14.4 -13.5 0
-14.4 -13.2 0
-14.4 -12.9 0
-14.4 -12.6 0
-14.4 -12.3 0
-14.4 -12 0
-14.4 -11.7 0
-14.4 -11.4 0
-14.4 -11.1 0
-14.4 -10.8 0
-14.4 -10.5 0
-14.4 -10.2 0
-14.4 -9.9 0
-14.4 -9.6 0
-14.4 -9.3 0
-14.4 -9 0
-14.4 -8.7 0
-14.4 -8.4 0
-14.4 -8.1 0
-14.4 -7.8 0
-14.4 -7.5 0
-14.4 -7.2 0
-14.4 -6.9 0
-14.4 -6.6 0
-14.4 -6.3 0
-14.4 -6 0
-14.4 -5.7 0
-14.4 -5.4 0
-14.4 -5.1 0
-14.4 -4.8 0
-14.4 -4.5 0
-14.4 -4.2 0
-14.4 -3.9 0
-14.4 -3.6 0
-14.4 -3.3 0
-14.4 -3 0
-14.4 -2.7 0
-14.4 -2.4 0
-14.4 -2.1 0
-14.4 -1.8 0
-14.4 -1.5 0
-14.4 -1.2 0
-14.4 -0.9 0
-14.4 -0.6 0
-14.4 -0.3 0
-14.4 0 0
-14.4 0.3 0
-14.4 0.6 0
-14.4 0.9 0
-14.4 1.2 0
-14.4 1.5 0
-14.4 1.8 0
-14.4 2.1 0
-14.4 2.4 0
-14.4 2.7 0
-14.4 3 0
-14.4 3.3 0
-14.4 3.6 0
-14.4 3.9 0
-14.4 4.2 0
-14.4 4.5 0
-14.4 4.8 0
-14.4 5.1 0
-14.4 5.4 0
-14.4 5.7 0
-14.4 6 0
-14.4 6.3 0
-14.4 6.6 0
-14.4 6.9 0
-14.4 7.2 0
-14.4 7.5 0
-14.4 7.8 0
-14.4 8.1 0
-14.4 8.4 0
-14.4 8.7 0
-14.4 9 0
-14.4 9.3 0
-14.4 9.6 0
-14.4 9.9 0
-14.4 10.2 0
-14.4 10.5 0
-14.4 10.8 0
-14.4 11.1 0
-14.4 11.4 0
-14.4 11.7 0
-14.4 12 0
-14.4 12.3 0
-14.4 12.6 0
-14.4 12.9 0
-14.4 13.2 0
-14.4 13.5 0
-14.4 13.8 0
-14.4 14.1 0
-14.4 14.4 0
-14.4 14.7 0
-14.4 15 0
-14.1 -15 0
-14.1 -14.7 0
-14.1 -14.4 0
-14.1 -14.1 0
-14.1 -13.8 0
-14.1 -13.5 0
-14.1 -13.2 0
-14.1 -12.9 0
-14.1 -12.6 0
-14.1 -12.3 0
-14.1 -12 0
-14.1 -11.7 0
-14.1 -11.4 0
-14.1 -11.1 0
-14.1 -10.8 0
-14.1 -10.5 0
-14.1 -10.2 0
-14.1 -9.9 0
-14.1 -9.6 0
-14.1 -9.3 0
-14.1 -9 0
-14.1 -8.7 0
-14.1 -8.4 0
-14.1 -8.1 0
-14.1 -7.8 0
-14.1 -7.5 0
-14.1 -7.2 0
-14.1 -6.9 0
-14.1 -6.6 0
-14.1 -6.3 0
-14.1 -6 0
-14.1 -5.7 0
-14.1 -5.4 0
-14.1 -5.1 0
-14.1 -4.8 0
-14.1 -4.5 0
-14.1 -4.2 0
-14.1 -3.9 0
-14.1 -3.6 0
-14.1 -3.3 0
-14.1 -3 0
-14.1 -2.7 0
-14.1 -2.4 0
-14.1 -2.1 0
-14.1 -1.8 0
-14.1 -1.5 0
-14.1 -1.2 0
-14.1 -0.9 0
-14.1 -0.6 0
-14.1 -0.3 0
-14.1 0 0
-14.1 0.3 0
-14.1 0.6 0
-14.1 0.9 0
-14.1 1.2 0
-14.1 1.5 0
-14.1 1.8 0
-14.1 2.1 0
-14.1 2.4 0
-14.1 2.7 0
-14.1 3 0
-14.1 3.3 0
-14.1 3.6 0
-14.1 3.9 0
-14.1 4.2 0
-14.1 4.5 0
-14.1 4.8 0
-14.1 5.1 0
-14.1 5.4 0
-14.1 5.7 0
-14.1 6 0
-14.1 6.3 0
-14.1 6.6 0
-14.1 6.9 0
-14.1 7.2 0
-14.1 7.5 0
-14.1 7.8 0
-14.1 8.1 0
-14.1 8.4 0
-14.1 8.7 0
-14.1 9 0
-14.1 9.3 0
-14.1 9.6 0
-14.1 9.9 0
-14.1 10.2 0
-14.1 10.5 0
-14.1 10.8 0
-14.1 11.1 0
-14.1 11.4 0
-14.1 11.7 0
-14.1 12 0
-14.1 12.3 0
-14.1 12.6 0
-14.1 12.9 0
-14.1 13.2 0
-14.1 13.5 0
-14.1 13.8 0
-14.1 14.1 0
-14.1 14.4 0
-14.1 14.7 0
-14.1 15 0
-13.8 -15 0
-13.8 -14.7 0
-13.8 -14.4 0
-13.8 -14.1 0
-13.8 -13.8 0
-13.8 -13.5 0
-13.8 -13.2 0
-13.8 -12.9 0
-13.8 -12.6 0
-13.8 -12.3 0
-13.8 -12 0
-13.8 -11.7 0
-13.8 -11.4 0
-13.8 -11.1 0
-13.8 -10.8 0
-13.8 -10.5 0
-13.8 -10.2 0
-13.8 -9.9 0
-13.8 -9.6 0
-13.8 -9.3 0
-13.8 -9 0
-13.8 -8.7 0
-13.8 -8.4 0
-13.8 -8.1 0
-13.8 -7.8 0
-13.8 -7.5 0
-13.8 -7.2 0
-13.8 -6.9 0
-13.8 -6.6 0
-13.8 -6.3 0
-13.8 -6 0
-13.8 -5.7 0
-13.8 -5.4 0
-13.8 -5.1 0
-13.8 -4.8 0
-13.8 -4.5 0
-13.8 -4.2 0
-13.8 -3.9 0
-13.8 -3.6 0
-13.8 -3.3 0
-13.8 -3 0
-13.8 -2.7 0
-13.8 -2.4 0
-13.8 -2.1 0
-13.8 -1.8 0
-13.8 -1.5 0
-13.8 -1.2 0
-13.8 -0.9 0
-13.8 -0.6 0
-13.8 -0.3 0
-13.8 0 0
-13.8 0.3 0
-13.8 0.6 0
-13.8 0.9 0
-13.8 1.2 0
-13.8 1.5 0
-13.8 1.8 0
-13.8 2.1 0
-13.8 2.4 0
-13.8 2.7 0
-13.8 3 0
-13.8 3.3 0
-13.8 3.6 0
-13.8 3.9 0
-13.8 4.2 0
-13.8 4.5 0
-13.8 4.8 0
-13.8 5.1 0
-13.8 5.4 0
-13.8 5.7 0
-13.8 6 0
-13.8 6.3 0
-13.8 6.6 0
-13.8 6.9 0
-13.8 7.2 0
-13.8 7.5 0
-13.8 7.8 0
-13.8 8.1 0
-13.8 8.4 0
-13.8 8.7 0
-13.8 9 0
-13.8 9.3 0
-13.8 9.6 0
-13.8 9.9 0
-13.8 10.2 0
-13.8 10.5 0
-13.8 10.8 0
-13.8 11.1 0
-13.8 11.4 0
-13.8 11.7 0
-13.8 12 0
-13.8 12.3 0
-13.8 12.6 0
-13.8 12.9 0
-13.8 13.2 0
-13.8 13.5 0
-13.8 13.8 0
-13.8 14.1 0
-13.8 14.4 0
-13.8 14.7 0
-13.8 15 0
-13.5 -15 0
-13.5 -14.7 0
-13.5 -14.4 0
-13.5 -14.1 0
-13.5 -13.8 0
-13.5 -13.5 0
-13.5 -13.2 0
-13.5 -12.9 0
-13.5 -12.6 0
-13.5 -12.3 0
-13.5 -12 0
-13.5 -11.7 0
-13.5 -11.4 0
-13.5 -11.1 0
-13.5 -10.8 0
-13.5 -10.5 0
-13.5 -10.2 0
-13.5 -9.9 0
-13.5 -9.6 0
-13.5 -9.3 0
-13.5 -9 0
-13.5 -8.7 0
-13.5 -8.4 0
-13.5 -8.1 0
-13.5 -7.8 0
-13.5 -7.5 0
-13.5 -7.2 0
-13.5 -6.9 0
-13.5 -6.6 0
-13.5 -6.3 0
-13.5 -6 0
-13.5 -5.7 0
-13.5 -5.4 0
-13.5 -5.1 0
-13.5 -4.8 0
-13.5 -4.5 0
-13.5 -4.2 0
-13.5 -3.9 0
-13.5 -3.6 0
-13.5 -3.3 0
-13.5 -3 0
-13.5 -2.7 0
-13.5 -2.4 0
-13.5 -2.1 0
-13.5 -1.8 0
-13.5 -1.5 0
-13.5 -1.2 0
-13.5 -0.9 0
-13.5 -0.6 0
-13.5 -0.3 0
-13.5 0 0
-13.5 0.3 0
-13.5 0.6 0
-13.5 0.9 0
-13.5 1.2 0
-13.5 1.5 0
-13.5 1.8 0
-13.5 2.1 0
-13.5 2.4 0
-13.5 2.7 0
-13.5 3 0
-13.5 3.3 0
-13.5 3.6 0
-13.5 3.9 0
-13.5 4.2 0
-13.5 4.5 0
-13.5 4.8 0
-13.5 5.1 0
-13.5 5.4 0
-13.5 5.7 0
-13.5 6 0
-13.5 6.3 0
-13.5 6.6 0
-13.5 6.9 0
-13.5 7.2 0
-13.5 7.5 0
-13.5 7.8 0
-13.5 8.1 0
-13.5 8.4 0
-13.5 8.7 0
-13.5 9 0
-13.5 9.3 0
-13.5 9.6 0
-13.5 9.9 0
-13.5 10.2 0
-13.5 10.5 0
-13.5 10.8 0
-13.5 11.1 0
-13.5 11.4 0
-13.5 11.7 0
-13.5 12 0
-13.5 12.3 0
-13.5 12.6 0
-13.5 12.9 0
-13.5 13.2 0
-13.5 13.5 0
-13.5 13.8 0
-13.5 14.1 0
-13.5 14.4 0
-13.5 14.7 0
-13.5 15 0
-13.2 -15 0
-13.2 -14.7 0
-13.2 -14.4 0
-13.2 -14.1 0
-13.2 -13.8 0
-13.2 -13.5 0
-13.2 -13.2 0
-13.2 -12.9 0
-13.2 -12.6 0
-13.2 -12.3 0
-13.2 -12 0
-13.2 -11.7 0
-13.2 -11.4 0
-13.2 -11.1 0
-13.2 -10.8 0
-13.2 -10.5 0
-13.2 -10.2 0
-13.2 -9.9 0
-13.2 -9.6 0
-13.2 -9.3 0
-13.2 -9 0
-13.2 -8.7 0
-13.2 -8.4 0
-13.2 -8.1 0
-13.2 -7.8 0
-13.2 -7.5 0
-13.2 -7.2 0
-13.2 -6.9 0
-13.2 -6.6 0
-13.2 -6.3 0
-13.2 -6 0
-13.2 -5.7 0
-13.2 -5.4 0
-13.2 -5.1 0
-13.2 -4.8 0
-13.2 -4.5 0
-13.2 -4.2 0
-13.2 -3.9 0
-13.2 -3.6 0
-13.2 -3.3 0
-13.2 -3 0
-13.2 -2.7 0
-13.2 -2.4 0
-13.2 -2.1 0
-13.2 -1.8 0
-13.2 -1.5 0
-13.2 -1.2 0
-13.2 -0.9 0
-13.2 -0.6 0
-13.2 -0.3 0
-13.2 0 0
-13.2 0.3 0
-13.2 0.6 0
-13.2 0.9 0
-13.2 1.2 0
-13.2 1.5 0
-13.2 1.8 0
-13.2 2.1 0
-13.2 2.4 0
-13.2 2.7 0
-13.2 3 0
-13.2 3.3 0
-13.2 3.6 0
-13.2 3.9 0
-13.2 4.2 0
-13.2 4.5 0
-13.2 4.8 0
-13.2 5.1 0
-13.2 5.4 0
-13.2 5.7 0
-13.2 6 0
-13.2 6.3 0
-13.2 6.6 0
-13.2 6.9 0
-13.2 7.2 0
-13.2 7.5 0
-13.2 7.8 0
-13.2 8.1 0
-13.2 8.4 0
-13.2 8.7 0
-13.2 9 0
-13.2 9.3 0
-13.2 9.6 0
-13.2 9.9 0
-13.2 10.2 0
-13.2 10.5 0
-13.2 10.8 0
-13.2 11.1 0
-13.2 11.4 0
-13.2 11.7 0
-13.2 12 0
-13.2 12.3 0
-13.2 12.6 0
-13.2 12.9 0
-13.2 13.2 0
-13.2 13.5 0
-13.2 13.8 0
-13.2 14.1 0
-13.2 14.4 0
-13.2 14.7 0
-13.2 15 0
-12.9 -15 0
-12.9 -14.7 0
-12.9 -14.4 0
-12.9 -14.1 0
-12.9 -13.8 0
-12.9 -13.5 0
-12.9 -13.2 0
-12.9 -12.9 0
-12.9 -12.6 0
-12.9 -12.3 0
-12.9 -12 0
-12.9 -11.7 0
-12.9 -11.4 0
-12.9 -11.1 0
-12.9 -10.8 0
-12.9 -10.5 0
-12.9 -10.2 0
-12.9 -9.9 0
-12.9 -9.6 0
-12.9 -9.3 0
-12.9 -9 0
-12.9 -8.7 0
-12.9 -8.4 0
-12.9 -8.1 0
-12.9 -7.8 0
-12.9 -7.5 0
-12.9 -7.2 0
-12.9 -6.9 0
-12.9 -6.6 0
-12.9 -6.3 0
-12.9 -6 0
-12.9 -5.7 0
-12.9 -5.4 0
-12.9 -5.1 0
-12.9 -4.8 0
-12.9 -4.5 0
-12.9 -4.2 0
-12.9 -3.9 0
-12.9 -3.6 0
-12.9 -3.3 0
-12.9 -3 0
-12.9 -2.7 0
-12.9 -2.4 0
-12.9 -2.1 0
-12.9 -1.8 0
-12.9 -1.5 0
-12.9 -1.2 0
-12.9 -0.9 0
-12.9 -0.6 0
-12.9 -0.3 0
-12.9 0 0
-12.9 0.3 0
-12.9 0.6 0
-12.9 0.9 0
-12.9 1.2 0
-12.9 1.5 0
-12.9 1.8 0
-12.9 2.1 0
-12.9 2.4 0
-12.9 2.7 0
-12.9 3 0
-12.9 3.3 0
-12.9 3.6 0
-12.9 3.9 0
-12.9 4.2 0
-12.9 4.5 0
-12.9 4.8 0
-12.9 5.1 0
-12.9 5.4 0
-12.9 5.7 0
-12.9 6 0
-12.9 6.3 0
-12.9 6.6 0
-12.9 6.9 0
-12.9 7.2 0
-12.9 7.5 0
-12.9 7.8 0
-12.9 8.1 0
-12.9 8.4 0
-12.9 8.7 0
-12.9 9 0
[...]
            <PointData>
                <DataArray type="Float64" Name="c1" format="ascii">
0.000462707 0.000463296 0.000465062 0.000468002 0.000472112 0.000477387 0.000483818 0.000491395 0.000500106 0.000509939 0.000520875 0.000532897 0.000545983 0.00056011 0.000575249 0.000591371 0.000608442 0.000626424 0.000645278 0.000664958 0.000685415 0.000706595 0.000728442 0.000750892 0.000773879 0.000797332 0.000821174 0.000845324 0.000869697 0.000894202 0.000918747 0.000943233 0.000967558 0.000991618 0.0010153 0.00103851 0.00106112 0.00108303 0.00110413 0.0011243 0.00114343 0.00116143 0.00117819 0.00119361 0.0012076 0.00122008 0.00123097 0.00124021 0.00124773 0.00125348 0.00125744 0.00125957 0.00125985 0.00125829 0.0012549 0.00124968 0.00124269 0.00123395 0.00122352 0.00121147 0.00119788 0.00118282 0.00116638 0.00114867 0.00112978 0.00110982 0.00108891 0.00106716 0.00104469 0.00102161 0.00099804 0.000974104 0.000949912 0.000925579 0.000901216 0.000876929 0.000852822 0.000828994 0.000805541 0.000782553 0.000760115 0.000738307 0.000717206 0.000696881 0.000677398 0.000658817 0.000641195 0.000624583 0.000609027 0.000594569 0.000581249 0.000569099 0.00055815 0.00054843 0.00053996 0.000532761 0.000526848 0.000522236 0.000518935 0.000516951 0.000516289 
0.000463253 0.000463843 0.000465613 0.000468561 0.000472682 0.000477971 0.000484418 0.000492016 0.000500751 0.00051061 0.000521576 0.000533631 0.000546754 0.000560921 0.000576104 0.000592274 0.000609396 0.000627434 0.000646346 0.000666088 0.000686611 0.000707862 0.000729782 0.00075231 0.000775379 0.000798916 0.000822846 0.000847087 0.000871554 0.000896156 0.000920799 0.000945386 0.000969813 0.000993977 0.00101777 0.00104108 0.00106379 0.00108581 0.001107 0.00112727 0.0011465 0.00116459 0.00118143 0.00119693 0.00121099 0.00122354 0.00123449 0.00124378 0.00125134 0.00125713 0.00126111 0.00126326 0.00126355 0.00126198 0.00125857 0.00125334 0.00124631 0.00123753 0.00122705 0.00121494 0.00120128 0.00118615 0.00116963 0.00115183 0.00113285 0.0011128 0.00109179 0.00106994 0.00104737 0.00102418 0.00100051 0.000976474 0.000952179 0.000927743 0.000903279 0.000878894 0.00085469 0.00083077 0.000807227 0.000784151 0.00076163 0.000739743 0.000718566 0.000698169 0.000678619 0.000659975 0.000642294 0.000625626 0.00061002 0.000595516 0.000582153 0.000569965 0.000558983 0.000549232 0.000540736 0.000533515 0.000527585 0.000522959 0.000519648 0.000517658 0.000516994 
0.000464888 0.000465483 0.000467267 0.000470238 0.000474391 0.000479721 0.000486219 0.000493877 0.000502682 0.000512621 0.000523678 0.000535833 0.000549067 0.000563355 0.00057867 0.000594982 0.000612258 0.000630461 0.00064955 0.00066948 0.000690202 0.000711664 0.000733806 0.000756567 0.000779879 0.000803671 0.000827865 0.00085238 0.000877129 0.000902022 0.000926963 0.000951853 0.000976588 0.00100106 0.00102517 0.00104879 0.00107182 0.00109414 0.00111563 0.00113619 0.00115571 0.00117407 0.00119117 0.00120691 0.0012212 0.00123395 0.00124508 0.00125452 0.00126221 0.00126811 0.00127216 0.00127435 0.00127466 0.00127308 0.00126963 0.00126432 0.00125719 0.00124829 0.00123766 0.00122538 0.00121151 0.00119616 0.0011794 0.00116135 0.0011421 0.00112176 0.00110046 0.00107831 0.00105542 0.00103193 0.00100795 0.000983593 0.000958987 0.000934244 0.000909476 0.000884794 0.000860302 0.0008361 0.000812286 0.00078895 0.000766178 0.000744052 0.000722648 0.000702036 0.000682283 0.000663449 0.00064559 0.000628758 0.000612999 0.000598355 0.000584865 0.000572563 0.000561478 0.000551638 0.000543064 0.000535778 0.000529794 0.000525127 0.000521786 0.000519779 0.000519109 
0.00046761 0.000468213 0.00047002 0.000473028 0.000477235 0.000482634 0.000489218 0.000496976 0.000505898 0.00051597 0.000527177 0.0005395 0.000552918 0.000567408 0.000582943 0.000599494 0.000617028 0.000635506 0.00065489 0.000675134 0.00069619 0.000718003 0.000740517 0.000763668 0.000787388 0.000811605 0.000836242 0.000861216 0.000886438 0.000911818 0.000937258 0.000962656 0.000987908 0.0010129 0.00103753 0.00106168 0.00108523 0.00110807 0.00113007 0.00115112 0.00117112 0.00118993 0.00120747 0.00122361 0.00123828 0.00125137 0.0012628 0.0012725 0.00128042 0.00128648 0.00129067 0.00129293 0.00129327 0.00129167 0.00128815 0.00128272 0.00127543 0.00126631 0.00125542 0.00124284 0.00122864 0.00121292 0.00119576 0.00117727 0.00115757 0.00113675 0.00111496 0.0010923 0.0010689 0.00104488 0.00102037 0.000995491 0.000970362 0.000945103 0.000919827 0.000894648 0.000869671 0.000844999 0.00082073 0.000796957 0.000773766 0.00075124 0.000729456 0.000708484 0.000688392 0.00066924 0.000651084 0.000633976 0.000617963 0.000603086 0.000589384 0.00057689 0.000565635 0.000555644 0.000546941 0.000539546 0.000533473 0.000528736 0.000525346 0.000523309 0.000522629 
0.000471412 0.000472026 0.000473865 0.000476927 0.000481209 0.000486705 0.000493407 0.000501307 0.000510393 0.000520652 0.00053207 0.000544627 0.000558304 0.000573078 0.000588923 0.000605809 0.000623703 0.00064257 0.000662368 0.000683053 0.000704577 0.000726887 0.000749922 0.000773622 0.000797917 0.000822734 0.000847995 0.000873615 0.000899505 0.000925572 0.000951715 0.000977832 0.00100381 0.00102955 0.00105492 0.00107981 0.0011041 0.00112767 0.00115039 0.00117214 0.00119281 0.00121228 0.00123042 0.00124715 0.00126234 0.00127592 0.00128778 0.00129785 0.00130608 0.00131239 0.00131675 0.00131913 0.00131951 0.00131788 0.00131426 0.00130866 0.00130113 0.00129171 0.00128046 0.00126746 0.00125278 0.00123653 0.0012188 0.0011997 0.00117935 0.00115786 0.00113536 0.00111198 0.00108785 0.00106309 0.00103784 0.00101222 0.000986349 0.000960359 0.000934366 0.000908485 0.000882823 0.000857488 0.000832578 0.000808188 0.000784407 0.000761317 0.000738998 0.00071752 0.00069695 0.00067735 0.000658777 0.000641282 0.00062491 0.000609706 0.000595705 0.000582943 0.000571448 0.000561247 0.000552362 0.000544813 0.000538615 0.000533781 0.000530322 0.000528243 0.00052755 
0.000476287 0.000476914 0.000478794 0.000481925 0.000486304 0.000491925 0.00049878 0.000506862 0.000516159 0.00052666 0.000538349 0.000551209 0.00056522 0.00058036 0.000596604 0.000613922 0.000632283 0.00065165 0.000671984 0.00069324 0.00071537 0.00073832 0.000762032 0.000786443 0.000811482 0.000837077 0.000863147 0.000889606 0.000916363 0.000943322 0.000970381 0.000997432 0.00102436 0.00105106 0.0010774 0.00110326 0.00112851 0.00115303 0.00117669 0.00119936 0.00122092 0.00124123 0.00126018 0.00127766 0.00129355 0.00130776 0.00132018 0.00133075 0.00133938 0.00134602 0.00135062 0.00135314 0.00135357 0.00135191 0.00134815 0.00134234 0.00133449 0.00132468 0.00131295 0.00129939 0.0012841 0.00126715 0.00124867 0.00122877 0.00120757 0.0011852 0.00116179 0.00113747 0.00111238 0.00108666 0.00106043 0.00103384 0.00100701 0.000980068 0.000953141 0.000926345 0.000899795 0.000873597 0.000847855 0.000822665 0.000798117 0.000774298 0.000751284 0.00072915 0.000707963 0.000687784 0.00066867 0.000650673 0.00063384 0.000618212 0.000603826 0.000590716 0.000578912 0.000568439 0.00055932 0.000551573 0.000545213 0.000540254 0.000536705 0.000534573 0.000533862 
0.000482222 0.000482866 0.000484797 0.000488013 0.00049251 0.000498283 0.000505326 0.000513631 0.000523188 0.000533984 0.000546006 0.000559237 0.000573658 0.000589247 0.000605981 0.00062383 0.000642764 0.000662747 0.000683739 0.000705698 0.000728574 0.000752314 0.000776859 0.000802146 0.000828105 0.000854659 0.000881729 0.000909226 0.000937056 0.00096512 0.000993313 0.00102152 0.00104963 0.00107752 0.00110506 0.00113213 0.00115858 0.00118429 0.00120912 0.00123293 0.00125559 0.00127696 0.00129692 0.00131534 0.00133211 0.00134711 0.00136024 0.00137142 0.00138056 0.0013876 0.0013925 0.00139521 0.00139571 0.00139399 0.00139008 0.00138398 0.00137575 0.00136544 0.00135312 0.00133887 0.00132279 0.00130498 0.00128556 0.00126466 0.0012424 0.00121893 0.00119437 0.00116888 0.0011426 0.00111568 0.00108824 0.00106044 0.00103242 0.0010043 0.00097621 0.000948282 0.00092063 0.000893365 0.000866593 0.000840413 0.000814919 0.000790197 0.000766328 0.000743384 0.000721435 0.000700543 0.000680764 0.000662151 0.000644748 0.000628599 0.00061374 0.000600203 0.000588019 0.000577213 0.000567805 0.000559814 0.000553257 0.000548144 0.000544485 0.000542287 0.000541554 
0.000489206 0.00048987 0.00049186 0.000495176 0.000499813 0.000505768 0.000513033 0.000521603 0.000531466 0.000542613 0.00055503 0.000568701 0.000583608 0.000599731 0.000617047 0.000635527 0.000655142 0.000675858 0.000697634 0.000720429 0.000744194 0.000768876 0.000794417 0.000820751 0.000847808 0.000875512 0.000903778 0.000932518 0.000961635 0.000991026 0.00102058 0.00105018 0.00107971 0.00110904 0.00113803 0.00116655 0.00119445 0.0012216 0.00124784 0.00127304 0.00129704 0.0013197 0.00134088 0.00136044 0.00137827 0.00139423 0.00140822 0.00142014 0.00142991 0.00143745 0.00144271 0.00144564 0.00144622 0.00144445 0.00144034 0.00143391 0.0014252 0.00141429 0.00140124 0.00138615 0.00136912 0.00135026 0.0013297 0.00130759 0.00128405 0.00125923 0.0012333 0.00120639 0.00117867 0.00115029 0.00112139 0.00109214 0.00106267 0.00103313 0.00100365 0.00097436 0.000945383 0.000916837 0.00088883 0.000861466 0.000834838 0.000809037 0.000784144 0.000760234 0.000737376 0.000715632 0.00069506 0.000675711 0.000657631 0.000640861 0.000625439 0.000611395 0.000598759 0.000587556 0.000577805 0.000569526 0.000562733 0.000557437 0.000553648 0.000551372 0.000550613 
0.000497221 0.000497908 0.000499968 0.000503399 0.000508198 0.000514362 0.000521886 0.000530761 0.00054098 0.000552533 0.000565407 0.000579588 0.000595059 0.000611802 0.000629793 0.000649006 0.000669413 0.00069098 0.000713669 0.000737438 0.000762239 0.00078802 0.000814721 0.000842279 0.00087062 0.000899668 0.000929337 0.000959535 0.000990162 0.00102111 0.00105227 0.00108351 0.00111471 0.00114573 0.00117644 0.00120667 0.0012363 0.00126515 0.00129307 0.0013199 0.00134549 0.00136968 0.00139231 0.00141324 0.00143233 0.00144945 0.00146446 0.00147728 0.00148779 0.00149592 0.00150161 0.00150481 0.0015055 0.00150366 0.00149931 0.00149248 0.00148321 0.00147158 0.00145766 0.00144156 0.0014234 0.00140329 0.00138138 0.00135782 0.00133275 0.00130635 0.00127877 0.00125018 0.00122075 0.00119065 0.00116003 0.00112906 0.00109789 0.00106667 0.00103555 0.00100465 0.00097412 0.000944069 0.000914613 0.000885859 0.000857904 0.00083084 0.00080475 0.00077971 0.000755791 0.000733054 0.000711558 0.000691352 0.000672483 0.000654992 0.000638914 0.00062428 0.00061112 0.000599455 0.000589307 0.000580693 0.000573626 0.000568118 0.000564178 0.000561812 0.000561022 
0.000506249 0.000506962 0.0005091 0.000512663 0.000517647 0.000524049 0.000531865 0.000541088 0.000551712 0.000563726 0.000577121 0.000591884 0.000607998 0.000625446 0.000644208 0.000664258 0.000685569 0.00070811 0.000731843 0.000756727 0.000782715 0.000809756 0.00083779 0.000866753 0.000896572 0.000927168 0.000958453 0.000990333 0.0010227 0.00105546 0.00108847 0.00112161 0.00115475 0.00118775 0.00122044 0.00125268 0.0012843 0.00131514 0.00134502 0.00137378 0.00140123 0.00142721 0.00145155 0.00147409 0.00149466 0.00151313 0.00152936 0.00154323 0.00155462 0.00156345 0.00156966 0.00157318 0.00157398 0.00157207 0.00156744 0.00156013 0.0015502 0.00153772 0.00152279 0.00150551 0.00148601 0.00146443 0.00144093 0.00141567 0.00138881 0.00136054 0.00133104 0.00130049 0.00126906 0.00123695 0.00120432 0.00117134 0.00113819 0.00110503 0.001072 0.00103925 0.00100691 0.000975121 0.000943992 0.000913634 0.000884149 0.000855631 0.000828164 0.000801826 0.000776688 0.000752812 0.000730256 0.000709069 0.000689297 0.00067098 0.000654153 0.000638846 0.000625085 0.000612895 0.000602293 0.000593296 0.000585918 0.000580168 0.000576056 0.000573586 0.000572763 
0.000516269 0.000517011 0.000519238 0.000522947 0.000528138 0.000534807 0.000542951 0.000552565 0.000563642 0.000576175 0.000590155 0.00060557 0.000622407 0.000640649 0.000660278 0.000681271 0.000703602 0.000727241 0.000752152 0.000778297 0.000805629 0.000834096 0.000863642 0.000894199 0.000925697 0.000958053 0.000991179 0.00102498 0.00105934 0.00109415 0.00112929 0.00116461 0.00119998 0.00123524 0.00127022 0.00130477 0.0013387 0.00137184 0.00140399 0.00143497 0.00146459 0.00149265 0.00151897 0.00154338 0.00156569 0.00158574 0.00160338 0.00161847 0.00163089 0.00164055 0.00164735 0.00165124 0.00165219 0.00165019 0.00164524 0.00163738 0.00162668 0.00161321 0.00159708 0.00157842 0.00155737 0.00153408 0.00150873 0.00148149 0.00145256 0.00142213 0.0013904 0.00135757 0.00132383 0.00128939 0.00125444 0.00121917 0.00118374 0.00114834 0.00111312 0.00107824 0.00104384 0.00101006 0.000977022 0.000944835 0.000913608 0.000883436 0.000854405 0.000826594 0.000800074 0.000774907 0.000751151 0.000728855 0.000708063 0.000688814 0.000671141 0.000655074 0.000640639 0.000627855 0.000616742 0.000607315 0.000599586 0.000593565 0.000589259 0.000586673 0.000585811 
0.000527255 0.00052803 0.000530354 0.000534227 0.000539647 0.000546612 0.00055512 0.000565166 0.000576747 0.000589856 0.000604485 0.000620626 0.000638266 0.000657392 0.000677987 0.000700031 0.000723499 0.000748365 0.000774593 0.000802148 0.000830984 0.000861051 0.000892293 0.000924643 0.000958029 0.000992369 0.00102757 0.00106354 0.00110015 0.0011373 0.00117484 0.00121264 0.00125054 0.00128838 0.00132599 0.00136317 0.00139975 0.00143552 0.00147028 0.00150381 0.00153592 0.00156638 0.001595 0.00162156 0.00164588 0.00166776 0.00168704 0.00170356 0.00171718 0.00172779 0.00173529 0.00173962 0.00174074 0.00173863 0.00173331 0.00172482 0.00171322 0.00169861 0.0016811 0.00166084 0.00163799 0.00161272 0.00158523 0.00155571 0.00152438 0.00149146 0.00145716 0.00142171 0.00138533 0.00134823 0.00131063 0.00127271 0.00123469 0.00119674 0.00115903 0.00112173 0.001085 0.00104896 0.00101376 0.000979512 0.000946319 0.000914283 0.000883492 0.000854025 0.000825954 0.00079934 0.00077424 0.000750702 0.000728769 0.000708478 0.000689862 0.000672947 0.000657758 0.000644314 0.000632632 0.000622726 0.000614607 0.000608283 0.000603761 0.000601047 0.000600141 
0.000539182 0.000539992 0.000542424 0.000546475 0.000552147 0.000559437 0.000568344 0.000578867 0.000591001 0.000604743 0.000620088 0.000637028 0.000655554 0.000675655 0.000697316 0.000720521 0.000745247 0.00077147 0.000799159 0.000828277 0.000858784 0.000890631 0.000923761 0.000958109 0.000993604 0.00103016 0.00106769 0.00110608 0.00114523 0.001185 0.00122526 0.00126585 0.00130662 0.00134738 0.00138796 0.00142814 0.00146773 0.0015065 0.00154423 0.00158069 0.00161565 0.00164887 0.00168012 0.00170916 0.00173579 0.00175978 0.00178095 0.00179912 0.00181413 0.00182585 0.00183417 0.00183901 0.00184032 0.0018381 0.00183235 0.00182312 0.00181049 0.00179455 0.00177546 0.00175336 0.00172843 0.00170088 0.00167093 0.00163879 0.00160471 0.00156893 0.0015317 0.00149326 0.00145386 0.00141373 0.0013731 0.0013322 0.00129123 0.00125039 0.00120987 0.00116985 0.00113048 0.00109191 0.00105428 0.00101771 0.00098232 0.0009482 0.000915444 0.000884131 0.000854331 0.000826108 0.000799514 0.000774598 0.0007514 0.000729955 0.000710294 0.000692441 0.000676419 0.000662246 0.000649935 0.0006395 0.00063095 0.000624293 0.000619534 0.000616677 0.000615724 
0.000552017 0.000552867 0.000555415 0.000559661 0.000565607 0.000573251 0.000582595 0.000593636 0.000606375 0.000620809 0.000636935 0.000654748 0.000674243 0.000695412 0.000718242 0.00074272 0.000768827 0.000796542 0.000825837 0.00085668 0.00088903 0.000922841 0.00095806 0.000994623 0.00103246 0.00107148 0.00111159 0.0011527 0.00119467 0.00123738 0.00128068 0.00132441 0.0013684 0.00141245 0.00145637 0.00149995 0.00154294 0.00158512 0.00162624 0.00166603 0.00170424 0.00174061 0.00177487 0.00180677 0.00183605 0.00186247 0.00188582 0.00190589 0.0019225 0.00193549 0.00194475 0.00195019 0.00195174 0.00194938 0.00194314 0.00193307 0.00191924 0.00190179 0.00188087 0.00185665 0.00182934 0.00179918 0.0017664 0.00173126 0.00169404 0.001655 0.00161442 0.00157258 0.00152975 0.00148618 0.00144213 0.00139784 0.00135355 0.00130946 0.00126578 0.0012227 0.00118038 0.00113898 0.00109864 0.00105949 0.00102165 0.000985214 0.000950277 0.000916918 0.000885207 0.000855205 0.000826963 0.000800527 0.000775936 0.000753221 0.000732412 0.000713529 0.000696593 0.000681619 0.00066862 0.000657606 0.000648584 0.000641562 0.000636542 0.00063353 0.000632525 
0.000565728 0.000566619 0.000569294 0.000573751 0.000579994 0.000588022 0.000597837 0.000609441 0.000622835 0.000638019 0.000654993 0.000673755 0.000694304 0.000716634 0.000740737 0.000766603 0.000794218 0.000823563 0.000854615 0.000887345 0.000921717 0.000957687 0.000995204 0.00103421 0.00107462 0.00111637 0.00115935 0.00120346 0.00124857 0.00129455 0.00134124 0.00138848 0.00143607 0.00148382 0.00153151 0.0015789 0.00162575 0.00167178 0.00171673 0.00176031 0.00180222 0.00184218 0.00187988 0.00191503 0.00194735 0.00197656 0.00200241 0.00202467 0.00204312 0.0020576 0.00206795 0.00207407 0.00207589 0.00207339 0.00206659 0.00205555 0.00204036 0.00202116 0.00199814 0.00197149 0.00194145 0.00190829 0.00187228 0.00183372 0.00179291 0.00175016 0.00170578 0.00166008 0.00161336 0.0015659 0.001518 0.00146991 0.00142188 0.00137415 0.00132693 0.00128042 0.00123481 0.00119025 0.0011469 0.0011049 0.00106434 0.00102535 0.000988005 0.000952393 0.000918579 0.000886621 0.000856571 0.00082847 0.000802353 0.000778251 0.000756186 0.00073618 0.000718247 0.000702401 0.000688652 0.000677007 0.000667472 0.000660052 0.00065475 0.000651568 0.000650507 
0.000580277 0.000581213 0.000584023 0.000588708 0.00059527 0.000603711 0.000614034 0.000626244 0.000640344 0.000656337 0.000674226 0.000694014 0.000715701 0.000739287 0.000764769 0.00079214 0.000821391 0.000852508 0.000885473 0.00092026 0.000956838 0.000995167 0.0010352 0.00107688 0.00112013 0.00116487 0.00121101 0.00125844 0.00130702 0.00135663 0.00140709 0.00145823 0.00150986 0.00156174 0.00161365 0.00166533 0.00171651 0.00176689 0.00181617 0.00186404 0.00191016 0.00195419 0.00199582 0.00203469 0.00207049 0.00210289 0.00213162 0.00215639 0.00217697 0.00219315 0.00220475 0.00221167 0.00221381 0.00221115 0.00220371 0.00219156 0.0021748 0.00215361 0.00212818 0.00209874 0.00206559 0.002029 0.0019893 0.00194684 0.00190195 0.00185498 0.00180628 0.00175621 0.0017051 0.00165326 0.00160101 0.00154865 0.00149643 0.00144463 0.00139346 0.00134315 0.00129388 0.00124583 0.00119915 0.00115398 0.00111043 0.00106862 0.00102864 0.000990554 0.000954437 0.000920343 0.000888318 0.000858401 0.000830624 0.000805011 0.000781584 0.000760357 0.000741343 0.000724552 0.00070999 0.000697662 0.000687572 0.000679722 0.000674114 0.000670749 0.000669628 
0.000595623 0.000596608 0.000599563 0.000604491 0.000611395 0.000620278 0.000631146 0.000644005 0.000658861 0.000675722 0.000694594 0.000715483 0.000738395 0.000763334 0.000790301 0.000819296 0.000850314 0.000883348 0.000918384 0.000955403 0.000994378 0.00103527 0.00107805 0.00112265 0.001169 0.00121703 0.00126664 0.00131772 0.00137014 0.00142375 0.00147839 0.00153387 0.00158997 0.00164647 0.0017031 0.00175959 0.00181563 0.00187091 0.00192508 0.0019778 0.00202868 0.00207736 0.00212345 0.00216657 0.00220634 0.00224241 0.00227443 0.00230209 0.00232512 0.00234326 0.00235632 0.00236416 0.00236668 0.00236384 0.00235567 0.00234224 0.00232369 0.00230021 0.00227201 0.00223939 0.00220266 0.00216216 0.00211826 0.00207134 0.00202181 0.00197005 0.00191647 0.00186146 0.00180539 0.00174862 0.0016915 0.00163435 0.00157746 0.00152111 0.00146555 0.00141101 0.0013577 0.00130578 0.00125543 0.00120678 0.00115995 0.00111506 0.00107218 0.0010314 0.00099277 0.000956349 0.000922178 0.000890291 0.000860713 0.000833465 0.000808563 0.000786018 0.000765837 0.000748026 0.000732589 0.000719526 0.000708838 0.000700526 0.000694589 0.000691027 0.00068984 