<?xml version="1.0"?>
<VTKFile type="StructuredGrid" version="0.1">
    <StructuredGrid WholeExtent="0 100 0 100 0 0">
        <Piece Extent="0 100 0 100 0 0">
            <Points>
                <DataArray type="Float64" NumberOfComponents="3" format="ascii">
-15 -15 0
-15 -14.7 0
-15 -14.4 0
-15 -14.1 0
-15 -13.8 0
-15 -13.5 0
-15 -13.2 0
-15 -12.9 0
-15 -12.6 0
-15 -12.3 0
-15 -12 0
-15 -11.7 0
-15 -11.4 0
-15 -11.1 0
-15 -10.8 0
-15 -10.5 0
-15 -10.2 0
-15 -9.9 0
-15 -9.6 0
-15 -9.3 0
-15 -9 0
-15 -8.7 0
-15 -8.4 0
-15 -8.1 0
-15 -7.8 0
-15 -7.5 0
-15 -7.2 0
-15 -6.9 0
-15 -6.6 0
-15 -6.3 0
-15 -6 0
-15 -5.7 0
-15 -5.4 0
-15 -5.1 0
-15 -4.8 0
-15 -4.5 0
-15 -4.2 0
-15 -3.9 0
-15 -3.6 0
-15 -3.3 0
-15 -3 0
-15 -2.7 0
-15 -2.4 0
-15 -2.1 0
-15 -1.8 0
-15 -1.5 0
-15 -1.2 0
-15 -0.9 0
-15 -0.6 0
-15 -0.3 0
-15 0 0
-15 0.3 0
-15 0.6 0
-15 0.9 0
-15 1.2 0
-15 1.5 0
-15 1.8 0
-15 2.1 0
-15 2.4 0
-15 2.7 0
-15 3 0
-15 3.3 0
-15 3.6 0
-15 3.9 0
-15 4.2 0
-15 4.5 0
-15 4.8 0
-15 5.1 0
-15 5.4 0
-15 5.7 0
-15 6 0
-15 6.3 0
-15 6.6 0
-15 6.9 0
-15 7.2 0
-15 7.5 0
-15 7.8 0
-15 8.1 0
-15 8.4 0
-15 8.7 0
-15 9 0
-15 9.3 0
-15 9.6 0
-15 9.9 0
-15 10.2 0
-15 10.5 0
-15 10.8 0
-15 11.1 0
-15 11.4 0
-15 11.7 0
-15 12 0
-15 12.3 0
-15 12.6 0
-15 12.9 0
-15 13.2 0
-15 13.5 0
-15 13.8 0
-15 14.1 0
-15 14.4 0
-15 14.7 0
-15 15 0
-14.7 -15 0
-14.7 -14.7 0
-14.7 -14.4 0
-14.7 -14.1 0
-14.7 -13.8 0
-14.7 -13.5 0
-14.7 -13.2 0
-14.7 -12.9 0
-14.7 -12.6 0
-14.7 -12.3 0
-14.7 -12 0
-14.7 -11.7 0
-14.7 -11.4 0
-14.7 -11.1 0
-14.7 -10.8 0
-14.7 -10.5 0
-14.7 -10.2 0
-14.7 -9.9 0
-14.7 -9.6 0
-14.7 -9.3 0
-14.7 -9 0
-14.7 -8.7 0
-14.7 -8.4 0
-14.7 -8.1 0
-14.7 -7.8 0
-14.7 -7.5 0
-14.7 -7.2 0
-14.7 -6.9 0
-14.7 -6.6 0
-14.7 -6.3 0
-14.7 -6 0
-14.7 -5.7 0
-14.7 -5.4 0
-14.7 -5.1 0
-14.7 -4.8 0
-14.7 -4.5 0
-14.7 -4.2 0
-14.7 -3.9 0
-14.7 -3.6 0
-14.7 -3.3 0
-14.7 -3 0
-14.7 -2.7 0
-14.7 -2.4 0
-14.7 -2.1 0
-14.7 -1.8 0
-14.7 -1.5 0
-14.7 -1.2 0
-14.7 -0.9 0
-14.7 -0.6 0
-14.7 -0.3 0
-14.7 0 0
-14.7 0.3 0
-14.7 0.6 0
-14.7 0.9 0
-14.7 1.2 0
-14.7 1.5 0
-14.7 1.8 0
-14.7 2.1 0
-14.7 2.4 0
-14.7 2.7 0
-14.7 3 0
-14.7 3.3 0
-14.7 3.6 0
-14.7 3.9 0
-14.7 4.2 0
-14.7 4.5 0
-14.7 4.8 0
-14.7 5.1 0
-14.7 5.4 0
-14.7 5.7 0
-14.7 6 0
-14.7 6.3 0
-14.7 6.6 0
-14.7 6.9 0
-14.7 7.2 0
-14.7 7.5 0
-14.7 7.8 0
-14.7 8.1 0
-14.7 8.4 0
-14.7 8.7 0
-14.7 9 0
-14.7 9.3 0
-14.7 9.6 0
-14.7 9.9 0
-14.7 10.2 0
-14.7 10.5 0
-14.7 10.8 0
-14.7 11.1 0
-14.7 11.4 0
-14.7 11.7 0
-14.7 12 0
-14.7 12.3 0
-14.7 12.6 0
-14.7 12.9 0
-14.7 13.2 0
-14.7 13.5 0
-14.7 13.8 0
-14.7 14.1 0
-14.7 14.4 0
-14.7 14.7 0
-14.7 15 0
-14.4 -15 0
-14.4 -14.7 0
-14.4 -14.4 0
-14.4 -14.1 0
-14.4 -13.8 0
-14.4 -13.5 0
-14.4 -13.2 0
-14.4 -12.9 0
-14.4 -12.6 0
-14.4 -12.3 0
-14.4 -12 0
-14.4 -11.7 0
-14.4 -11.4 0
-14.4 -11.1 0
-14.4 -10.8 0
-14.4 -10.5 0
-14.4 -10.2 0
-14.4 -9.9 0
-14.4 -9.6 0
-14.4 -9.3 0
-14.4 -9 0
-14.4 -8.7 0
-14.4 -8.4 0
-14.4 -8.1 0
-14.4 -7.8 0
-14.4 -7.5 0
-14.4 -7.2 0
-14.4 -6.9 0
-14.4 -6.6 0
-14.4 -6.3 0
-14.4 -6 0
-14.4 -5.7 0
-14.4 -5.4 0
-14.4 -5.1 0
-14.4 -4.8 0
-14.4 -4.5 0
-14.4 -4.2 0
-14.4 -3.9 0
-14.4 -3.6 0
-14.4 -3.3 0
-14.4 -3 0
-14.4 -2.7 0
-14.4 -2.4 0
-14.4 -2.1 0
-14.4 -1.8 0
-14.4 -1.5 0
-14.4 -1.2 0
-14.4 -0.9 0
-14.4 -0.6 0
-14.4 -0.3 0
-14.4 0 0
-14.4 0.3 0
-14.4 0.6 0
-14.4 0.9 0
-14.4 1.2 0
-14.4 1.5 0
-14.4 1.8 0
-14.4 2.1 0
-14.4 2.4 0
-14.4 2.7 0
-14.4 3 0
-14.4 3.3 0
-14.4 3.6 0
-14.4 3.9 0
-14.4 4.2 0
-14.4 4.5 0
-14.4 4.8 0
-14.4 5.1 0
-14.4 5.4 0
-14.4 5.7 0
-14.4 6 0
-14.4 6.3 0
-14.4 6.6 0
-14.4 6.9 0
-14.4 7.2 0
-14.4 7.5 0
-14.4 7.8 0
-14.4 8.1 0
-14.4 8.4 0
-14.4 8.7 0
-14.4 9 0
-14.4 9.3 0
-14.4 9.6 0
-14.4 9.9 0
-14.4 10.2 0
-14.4 10.5 0
-14.4 10.8 0
-14.4 11.1 0
-14.4 11.4 0
-14.4 11.7 0
-14.4 12 0
-14.4 12.3 0
-14.4 12.6 0
-14.4 12.9 0
-14.4 13.2 0
-14.4 13.5 0
-14.4 13.8 0
-14.4 14.1 0
-14.4 14.4 0
-14.4 14.7 0
-14.4 15 0
-14.1 -15 0
-14.1 -14.7 0
-14.1 -14.4 0
-14.1 -14.1 0
-14.1 -13.8 0
-14.1 -13.5 0
-14.1 -13.2 0
-14.1 -12.9 0
-14.1 -12.6 0
-14.1 -12.3 0
-14.1 -12 0
-14.1 -11.7 0
-14.1 -11.4 0
-14.1 -11.1 0
-14.1 -10.8 0
-14.1 -10.5 0
-14.1 -10.2 0
-14.1 -9.9 0
-14.1 -9.6 0
-14.1 -9.3 0
-14.1 -9 0
-14.1 -8.7 0
-14.1 -8.4 0
-14.1 -8.1 0
-14.1 -7.8 0
-14.1 -7.5 0
-14.1 -7.2 0
-14.1 -6.9 0
-14.1 -6.6 0
-14.1 -6.3 0
-14.1 -6 0
-14.1 -5.7 0
-14.1 -5.4 0
-14.1 -5.1 0
-14.1 -4.8 0
-14.1 -4.5 0
-14.1 -4.2 0
-14.1 -3.9 0
-14.1 -3.6 0
-14.1 -3.3 0
-14.1 -3 0
-14.1 -2.7 0
-14.1 -2.4 0
-14.1 -2.1 0
-14.1 -1.8 0
-14.1 -1.5 0
-14.1 -1.2 0
-14.1 -0.9 0
-14.1 -0.6 0
-14.1 -0.3 0
-14.1 0 0
-14.1 0.3 0
-14.1 0.6 0
-14.1 0.9 0
-14.1 1.2 0
-14.1 1.5 0
-14.1 1.8 0
-14.1 2.1 0
-14.1 2.4 0
-14.1 2.7 0
-14.1 3 0
-14.1 3.3 0
-14.1 3.6 0
-14.1 3.9 0
-14.1 4.2 0
-14.1 4.5 0
-14.1 4.8 0
-14.1 5.1 0
-14.1 5.4 0
-14.1 5.7 0
-14.1 6 0
-14.1 6.3 0
-14.1 6.6 0
-14.1 6.9 0
-14.1 7.2 0
-14.1 7.5 0
-14.1 7.8 0
-14.1 8.1 0
-14.1 8.4 0
-14.1 8.7 0
-14.1 9 0
-14.1 9.3 0
-14.1 9.6 0
-14.1 9.9 0
-14.1 10.2 0
-14.1 10.5 0
-14.1 10.8 0
-14.1 11.1 0
-14.1 11.4 0
-14.1 11.7 0
-14.1 12 0
-14.1 12.3 0
-14.1 12.6 0
-14.1 12.9 0
-14.1 13.2 0
-14.1 13.5 0
-14.1 13.8 0
-14.1 14.1 0
-14.1 14.4 0
-14.1 14.7 0
-14.1 15 0
-13.8 -15 0
-13.8 -14.7 0
-13.8 -14.4 0
-13.8 -14.1 0
-13.8 -13.8 0
-13.8 -13.5 0
-13.8 -13.2 0
-13.8 -12.9 0
-13.8 -12.6 0
-13.8 -12.3 0
-13.8 -12 0
-13.8 -11.7 0
-13.8 -11.4 0
-13.8 -11.1 0
-13.8 -10.8 0
-13.8 -10.5 0
-13.8 -10.2 0
-13.8 -9.9 0
-13.8 -9.6 0
-13.8 -9.3 0
-13.8 -9 0
-13.8 -8.7 0
-13.8 -8.4 0
-13.8 -8.1 0
-13.8 -7.8 0
-13.8 -7.5 0
-13.8 -7.2 0
-13.8 -6.9 0
-13.8 -6.6 0
-13.8 -6.3 0
-13.8 -6 0
-13.8 -5.7 0
-13.8 -5.4 0
-13.8 -5.1 0
-13.8 -4.8 0
-13.8 -4.5 0
-13.8 -4.2 0
-13.8 -3.9 0
-13.8 -3.6 0
-13.8 -3.3 0
-13.8 -3 0
-13.8 -2.7 0
-13.8 -2.4 0
-13.8 -2.1 0
-13.8 -1.8 0
-13.8 -1.5 0
-13.8 -1.2 0
-13.8 -0.9 0
-13.8 -0.6 0
-13.8 -0.3 0
-13.8 0 0
-13.8 0.3 0
-13.8 0.6 0
-13.8 0.9 0
-13.8 1.2 0
-13.8 1.5 0
-13.8 1.8 0
-13.8 2.1 0
-13.8 2.4 0
-13.8 2.7 0
-13.8 3 0
-13.8 3.3 0
-13.8 3.6 0
-13.8 3.9 0
-13.8 4.2 0
-13.8 4.5 0
-13.8 4.8 0
-13.8 5.1 0
-13.8 5.4 0
-13.8 5.7 0
-13.8 6 0
-13.8 6.3 0
-13.8 6.6 0
-13.8 6.9 0
-13.8 7.2 0
-13.8 7.5 0
-13.8 7.8 0
-13.8 8.1 0
-13.8 8.4 0
-13.8 8.7 0
-13.8 9 0
-13.8 9.3 0
-13.8 9.6 0
-13.8 9.9 0
-13.8 10.2 0
-13.8 10.5 0
-13.8 10.8 0
-13.8 11.1 0
-13.8 11.4 0
-13.8 11.7 0
-13.8 12 0
-13.8 12.3 0
-13.8 12.6 0
-13.8 12.9 0
-13.8 13.2 0
-13.8 13.5 0
-13.8 13.8 0
-13.8 14.1 0
-13.8 14.4 0
-13.8 14.7 0
-13.8 15 0
-13.5 -15 0
-13.5 -14.7 0
-13.5 -14.4 0
-13.5 -14.1 0
-13.5 -13.8 0
-13.5 -13.5 0
-13.5 -13.2 0
-13.5 -12.9 0
-13.5 -12.6 0
-13.5 -12.3 0
-13.5 -12 0
-13.5 -11.7 0
-13.5 -11.4 0
-13.5 -11.1 0
-13.5 -10.8 0
-13.5 -10.5 0
-13.5 -10.2 0
-13.5 -9.9 0
-13.5 -9.6 0
-13.5 -9.3 0
-13.5 -9 0
-13.5 -8.7 0
-13.5 -8.4 0
-13.5 -8.1 0
-13.5 -7.8 0
-13.5 -7.5 0
-13.5 -7.2 0
-13.5 -6.9 0
-13.5 -6.6 0
-13.5 -6.3 0
-13.5 -6 0
-13.5 -5.7 0
-13.5 -5.4 0
-13.5 -5.1 0
-13.5 -4.8 0
-13.5 -4.5 0
-13.5 -4.2 0
-13.5 -3.9 0
-13.5 -3.6 0
-13.5 -3.3 0
-13.5 -3 0
-13.5 -2.7 0
-13.5 -2.4 0
-13.5 -2.1 0
-13.5 -1.8 0
-13.5 -1.5 0
-13.5 -1.2 0
-13.5 -0.9 0
-13.5 -0.6 0
-13.5 -0.3 0
-13.5 0 0
-13.5 0.3 0
-13.5 0.6 0
-13.5 0.9 0
-13.5 1.2 0
-13.5 1.5 0
-13.5 1.8 0
-13.5 2.1 0
-13.5 2.4 0
-13.5 2.7 0
-13.5 3 0
-13.5 3.3 0
-13.5 3.6 0
-13.5 3.9 0
-13.5 4.2 0
-13.5 4.5 0
-13.5 4.8 0
-13.5 5.1 0
-13.5 5.4 0
-13.5 5.7 0
-13.5 6 0
-13.5 6.3 0
-13.5 6.6 0
-13.5 6.9 0
-13.5 7.2 0
-13.5 7.5 0
-13.5 7.8 0
-13.5 8.1 0
-13.5 8.4 0
-13.5 8.7 0
-13.5 9 0
-13.5 9.3 0
-13.5 9.6 0
-13.5 9.9 0
-13.5 10.2 0
-13.5 10.5 0
-13.5 10.8 0
-13.5 11.1 0
-13.5 11.4 0
-13.5 11.7 0
-13.5 12 0
-13.5 12.3 0
-13.5 12.6 0
-13.5 12.9 0
-13.5 13.2 0
-13.5 13.5 0
-13.5 13.8 0
-13.5 14.1 0
-13.5 14.4 0
-13.5 14.7 0
-13.5 15 0
-13.2 -15 0
-13.2 -14.7 0
-13.2 -14.4 0
-13.2 -14.1 0
-13.2 -13.8 0
-13.2 -13.5 0
-13.2 -13.2 0
-13.2 -12.9 0
-13.2 -12.6 0
-13.2 -12.3 0
-13.2 -12 0
-13.2 -11.7 0
-13.2 -11.4 0
-13.2 -11.1 0
-13.2 -10.8 0
-13.2 -10.5 0
-13.2 -10.2 0
-13.2 -9.9 0
-13.2 -9.6 0
-13.2 -9.3 0
-13.2 -9 0
-13.2 -8.7 0
-13.2 -8.4 0
-13.2 -8.1 0
-13.2 -7.8 0
-13.2 -7.5 0
-13.2 -7.2 0
-13.2 -6.9 0
-13.2 -6.6 0
-13.2 -6.3 0
-13.2 -6 0
-13.2 -5.7 0
-13.2 -5.4 0
-13.2 -5.1 0
-13.2 -4.8 0
-13.2 -4.5 0
-13.2 -4.2 0
-13.2 -3.9 0
-13.2 -3.6 0
-13.2 -3.3 0
-13.2 -3 0
-13.2 -2.7 0
-13.2 -2.4 0
-13.2 -2.1 0
-13.2 -1.8 0
-13.2 -1.5 0
-13.2 -1.2 0
-13.2 -0.9 0
-13.2 -0.6 0
-13.2 -0.3 0
-13.2 0 0
-13.2 0.3 0
-13.2 0.6 0
-13.2 0.9 0
-13.2 1.2 0
-13.2 1.5 0
-13.2 1.8 0
-13.2 2.1 0
-13.2 2.4 0
-13.2 2.7 0
-13.2 3 0
-13.2 3.3 0
-13.2 3.6 0
-13.2 3.9 0
-13.2 4.2 0
-13.2 4.5 0
-13.2 4.8 0
-13.2 5.1 0
-13.2 5.4 0
-13.2 5.7 0
-13.2 6 0
-13.2 6.3 0
-13.2 6.6 0
-13.2 6.9 0
-13.2 7.2 0
-13.2 7.5 0
-13.2 7.8 0
-13.2 8.1 0
-13.2 8.4 0
-13.2 8.7 0
-13.2 9 0
-13.2 9.3 0
-13.2 9.6 0
-13.2 9.9 0
-13.2 10.2 0
-13.2 10.5 0
-13.2 10.8 0
-13.2 11.1 0
-13.2 11.4 0
-13.2 11.7 0
-13.2 12 0
-13.2 12.3 0
-13.2 12.6 0
-13.2 12.9 0
-13.2 13.2 0
-13.2 13.5 0
-13.2 13.8 0
-13.2 14.1 0
-13.2 14.4 0
-13.2 14.7 0
-13.2 15 0
-12.9 -15 0
-12.9 -14.7 0
-12.9 -14.4 0
-12.9 -14.1 0
-12.9 -13.8 0
-12.9 -13.5 0
-12.9 -13.2 0
-12.9 -12.9 0
-12.9 -12.6 0
-12.9 -12.3 0
-12.9 -12 0
-12.9 -11.7 0
-12.9 -11.4 0
-12.9 -11.1 0
-12.9 -10.8 0
-12.9 -10.5 0
-12.9 -10.2 0
-12.9 -9.9 0
-12.9 -9.6 0
-12.9 -9.3 0
-12.9 -9 0
-12.9 -8.7 0
-12.9 -8.4 0
-12.9 -8.1 0
-12.9 -7.8 0
-12.9 -7.5 0
-12.9 -7.2 0
-12.9 -6.9 0
-12.9 -6.6 0
-12.9 -6.3 0
-12.9 -6 0
-12.9 -5.7 0
-12.9 -5.4 0
-12.9 -5.1 0
-12.9 -4.8 0
-12.9 -4.5 0
-12.9 -4.2 0
-12.9 -3.9 0
-12.9 -3.6 0
-12.9 -3.3 0
-12.9 -3 0
-12.9 -2.7 0
-12.9 -2.4 0
-12.9 -2.1 0
-12.9 -1.8 0
-12.9 -1.5 0
-12.9 -1.2 0
-12.9 -0.9 0
-12.9 -0.6 0
-12.9 -0.3 0
-12.9 0 0
-12.9 0.3 0
-12.9 0.6 0
-12.9 0.9 0
-12.9 1.2 0
-12.9 1.5 0
-12.9 1.8 0
-12.9 2.1 0
-12.9 2.4 0
-12.9 2.7 0
-12.9 3 0
-12.9 3.3 0
-12.9 3.6 0
-12.9 3.9 0
-12.9 4.2 0
-12.9 4.5 0
-12.9 4.8 0
-12.9 5.1 0
-12.9 5.4 0
-12.9 5.7 0
-12.9 6 0
-12.9 6.3 0
-12.9 6.6 0
-12.9 6.9 0
-12.9 7.2 0
-12.9 7.5 0
-12.9 7.8 0
-12.9 8.1 0
-12.9 8.4 0
-12.9 8.7 0
-12.9 9 0
[...]
            <PointData>
                <DataArray type="Float64" Name="c1" format="ascii">
0.000267318 0.000267825 0.000269345 0.000271875 0.000275412 0.000279948 0.000285476 0.000291987 0.000299467 0.000307904 0.000317281 0.00032758 0.000338778 0.000350854 0.000363781 0.000377528 0.000392065 0.000407355 0.00042336 0.000440037 0.000457341 0.000475222 0.000493628 0.0005125 0.000531779 0.0005514 0.000571295 0.000591392 0.000611615 0.000631886 0.000652123 0.000672241 0.000692154 0.000711773 0.000731006 0.000749764 0.000767952 0.00078548 0.000802257 0.000818193 0.0008332 0.000847195 0.000860098 0.000871831 0.000882326 0.000891517 0.000899347 0.000905766 0.00091073 0.000914208 0.000916173 0.00091661 0.000915514 0.000912887 0.000908743 0.000903104 0.000896003 0.000887479 0.000877583 0.000866372 0.000853911 0.000840272 0.000825532 0.000809775 0.000793087 0.000775561 0.000757291 0.000738372 0.000718903 0.000698981 0.000678703 0.000658168 0.000637471 0.000616704 0.00059596 0.000575325 0.000554884 0.00053472 0.000514907 0.000495521 0.000476629 0.000458296 0.000440583 0.000423545 0.000407235 0.0003917 0.000376983 0.000363126 0.000350163 0.000338128 0.00032705 0.000316953 0.000307862 0.000299796 0.000292772 0.000286805 0.000281907 0.000278087 0.000275354 0.000273712 0.000273164 
0.000267814 0.000268322 0.000269846 0.000272384 0.00027593 0.000280479 0.000286023 0.000292552 0.000300055 0.000308516 0.00031792 0.000328249 0.000339482 0.000351594 0.00036456 0.000378351 0.000392933 0.000408272 0.000424329 0.000441062 0.000458424 0.000476367 0.000494837 0.000513776 0.000533125 0.000552819 0.000572788 0.000592962 0.000613264 0.000633616 0.000653935 0.000674137 0.000694134 0.000713837 0.000733156 0.000751997 0.000770268 0.000787878 0.000804734 0.000820747 0.000835829 0.000849894 0.000862863 0.000874658 0.000885209 0.00089445 0.000902324 0.000908781 0.000913776 0.000917277 0.000919259 0.000919704 0.000918609 0.000915975 0.000911816 0.000906155 0.000899024 0.000890464 0.000880524 0.000869263 0.000856746 0.000843046 0.000828239 0.000812411 0.000795648 0.000778044 0.000759693 0.000740691 0.000721136 0.000701128 0.000680764 0.000660142 0.000639358 0.000618506 0.000597677 0.00057696 0.000556438 0.000536195 0.000516306 0.000496846 0.000477883 0.000459483 0.000441705 0.000424606 0.000408238 0.000392648 0.000377881 0.000363977 0.00035097 0.000338895 0.000327779 0.00031765 0.000308529 0.000300437 0.00029339 0.000287404 0.000282491 0.000278659 0.000275917 0.000274269 0.00027372 
0.0002693 0.000269813 0.00027135 0.000273908 0.000277484 0.000282072 0.000287663 0.000294248 0.000301815 0.00031035 0.000319837 0.000330258 0.000341591 0.000353814 0.000366899 0.000380818 0.000395539 0.000411025 0.000427239 0.000444137 0.000461675 0.000479802 0.000498464 0.000517606 0.000537164 0.000557076 0.00057727 0.000597675 0.000618215 0.00063881 0.000659377 0.00067983 0.00070008 0.000720038 0.00073961 0.000758704 0.000777226 0.000795081 0.000812177 0.000828422 0.000843726 0.000858003 0.000871171 0.000883151 0.000893871 0.000903265 0.000911272 0.000917842 0.000922931 0.000926503 0.000928533 0.000929005 0.000927911 0.000925257 0.000921054 0.000915326 0.000908105 0.000899434 0.000889364 0.000877952 0.000865267 0.000851381 0.000836374 0.000820332 0.000803344 0.000785504 0.000766909 0.000747656 0.000727846 0.000707579 0.000686954 0.000666071 0.000645028 0.000623918 0.000602835 0.000581869 0.000561104 0.000540624 0.000520506 0.000500825 0.000481649 0.000463045 0.000445073 0.00042779 0.000411248 0.000395495 0.000380575 0.000366528 0.00035339 0.000341194 0.000329968 0.000319739 0.000310529 0.000302359 0.000295245 0.000289201 0.000284241 0.000280373 0.000277605 0.000275942 0.000275387 
0.000271774 0.000272293 0.000273852 0.000276446 0.000280072 0.000284724 0.000290393 0.000297072 0.000304747 0.000313404 0.000323029 0.000333603 0.000345104 0.00035751 0.000370795 0.000384929 0.000399879 0.000415612 0.000432087 0.000449263 0.000467094 0.000485528 0.000504514 0.000523992 0.000543901 0.000564177 0.000584747 0.000605541 0.000626478 0.00064748 0.000668461 0.000689334 0.000710009 0.000730393 0.000750392 0.00076991 0.000788851 0.000807118 0.000824616 0.00084125 0.000856928 0.000871561 0.000885063 0.000897354 0.000908359 0.000918008 0.00092624 0.000933002 0.000938247 0.000941939 0.000944051 0.000944566 0.000943477 0.000940787 0.00093651 0.00093067 0.000923299 0.000914443 0.000904152 0.000892487 0.000879519 0.000865322 0.000849979 0.000833577 0.000816211 0.000797976 0.000778971 0.000759298 0.000739059 0.000718357 0.000697296 0.000675976 0.000654496 0.000632956 0.000611448 0.000590064 0.000568892 0.000548016 0.000527514 0.000507462 0.000487931 0.000468987 0.000450691 0.000433101 0.000416268 0.000400242 0.000385066 0.000370781 0.000357423 0.000345025 0.000333615 0.000323219 0.000313861 0.00030556 0.000298333 0.000292194 0.000287156 0.000283227 0.000280416 0.000278727 0.000278164 
0.000275229 0.000275759 0.000277347 0.000279991 0.000283687 0.000288429 0.000294209 0.000301018 0.000308844 0.000317674 0.000327492 0.00033828 0.000350017 0.000362681 0.000376245 0.00039068 0.000405954 0.000422032 0.000438875 0.00045644 0.000474682 0.000493549 0.000512988 0.000532941 0.000553344 0.000574131 0.000595232 0.000616571 0.000638069 0.000659644 0.00068121 0.000702675 0.000723949 0.000744935 0.000765536 0.000785653 0.000805187 0.000824036 0.000842103 0.000859288 0.000875496 0.000890632 0.000904608 0.00091734 0.000928748 0.00093876 0.000947311 0.000954344 0.000959811 0.000963673 0.000965902 0.000966479 0.000965396 0.000962657 0.000958276 0.000952276 0.000944694 0.000935574 0.000924971 0.000912949 0.000899579 0.000884942 0.000869123 0.000852214 0.000834311 0.000815517 0.000795933 0.000775665 0.00075482 0.000733505 0.000711826 0.000689889 0.000667795 0.000645645 0.000623538 0.000601566 0.00057982 0.000558385 0.000537343 0.00051677 0.000496739 0.000477316 0.000458564 0.00044054 0.000423299 0.000406889 0.000391354 0.000376735 0.000363068 0.000350386 0.000338717 0.000328089 0.000318522 0.000310038 0.000302652 0.000296379 0.000291231 0.000287218 0.000284346 0.00028262 0.000282045 
0.00027966 0.000280202 0.000281829 0.000284537 0.000288323 0.00029318 0.000299102 0.000306079 0.000314101 0.000323152 0.000333219 0.000344283 0.000356325 0.00036932 0.000383244 0.000398068 0.000413759 0.000430283 0.000447601 0.000465669 0.000484442 0.000503868 0.000523894 0.000544459 0.000565501 0.000586952 0.000608739 0.000630786 0.000653011 0.00067533 0.000697653 0.000719889 0.00074194 0.000763709 0.000785093 0.00080599 0.000826295 0.000845904 0.000864712 0.000882615 0.000899514 0.000915308 0.000929903 0.000943211 0.000955146 0.000965632 0.0009746 0.000981989 0.000987747 0.000991832 0.000994214 0.000994873 0.000993799 0.000990997 0.000986479 0.000980272 0.000972414 0.00096295 0.00095194 0.00093945 0.000925557 0.000910345 0.000893905 0.000876333 0.000857732 0.000838208 0.00081787 0.000796828 0.000775194 0.00075308 0.000730598 0.000707857 0.000684965 0.000662025 0.000639139 0.000616404 0.000593913 0.000571754 0.000550012 0.000528763 0.000508084 0.000488041 0.000468698 0.000450116 0.000432346 0.00041544 0.00039944 0.00038439 0.000370324 0.000357275 0.000345273 0.000334343 0.000324508 0.000315786 0.000308196 0.000301751 0.000296462 0.000292339 0.000289388 0.000287616 0.000287025 
0.000285056 0.000285614 0.000287288 0.000290074 0.00029397 0.000298969 0.000305065 0.000312248 0.000320508 0.000329831 0.000340203 0.000351605 0.000364019 0.000377422 0.000391788 0.000407088 0.000423292 0.000440363 0.000458263 0.00047695 0.000496376 0.00051649 0.000537237 0.000558558 0.000580387 0.000602655 0.000625289 0.000648209 0.000671332 0.00069457 0.000717831 0.000741019 0.000764034 0.000786772 0.000809127 0.000830992 0.000852255 0.000872807 0.000892537 0.000911334 0.000929092 0.000945705 0.000961073 0.000975098 0.000987692 0.00099877 0.00100826 0.00101609 0.00102221 0.00102658 0.00102915 0.00102992 0.00102886 0.00102597 0.00102129 0.00101482 0.00100662 0.000996729 0.000985211 0.00097214 0.000957595 0.000941667 0.000924453 0.000906057 0.000886587 0.000866156 0.000844879 0.000822875 0.000800262 0.000777158 0.000753679 0.000729943 0.000706061 0.000682142 0.000658293 0.000634614 0.000611202 0.000588149 0.000565541 0.00054346 0.000521981 0.000501174 0.000481104 0.000461833 0.000443413 0.000425896 0.000409326 0.000393744 0.000379188 0.000365689 0.000353278 0.000341978 0.000331813 0.000322801 0.00031496 0.000308302 0.00030284 0.000298583 0.000295537 0.000293707 0.000293097 
0.000291406 0.000291982 0.000293712 0.000296591 0.000300617 0.000305784 0.000312085 0.000319512 0.000328055 0.0003377 0.000348432 0.000360236 0.000373092 0.000386977 0.000401867 0.000417734 0.000434545 0.000452267 0.00047086 0.000490282 0.000510485 0.000531419 0.000553026 0.000575247 0.000598015 0.00062126 0.000644905 0.000668869 0.000693066 0.000717405 0.000741791 0.000766121 0.000790292 0.000814195 0.000837718 0.000860746 0.000883164 0.000904852 0.000925694 0.000945571 0.000964367 0.000981971 0.000998272 0.00101317 0.00102656 0.00103836 0.00104848 0.00105685 0.00106341 0.00106812 0.00107093 0.00107182 0.00107077 0.0010678 0.00106291 0.00105613 0.00104751 0.00103711 0.00102498 0.0010112 0.000995867 0.000979074 0.000960926 0.000941534 0.000921014 0.000899489 0.000877082 0.000853918 0.000830125 0.000805828 0.000781152 0.000756219 0.000731148 0.000706054 0.00068105 0.00065624 0.000631725 0.000607602 0.00058396 0.000560882 0.000538448 0.000516729 0.000495792 0.000475699 0.000456504 0.00043826 0.000421011 0.000404798 0.000389658 0.000375625 0.000362726 0.000350987 0.00034043 0.000331073 0.000322934 0.000316025 0.000310358 0.000305941 0.000302781 0.000300884 0.000300251 
0.000298695 0.000299294 0.000301087 0.000304073 0.00030825 0.000313611 0.00032015 0.000327859 0.000336728 0.000346745 0.000357896 0.000370165 0.000383532 0.000397977 0.000413474 0.000429997 0.000447514 0.000465991 0.000485389 0.000505665 0.000526773 0.00054866 0.000571269 0.00059454 0.000618403 0.000642787 0.000667614 0.0006928 0.000718255 0.000743884 0.000769587 0.000795258 0.000820788 0.00084606 0.000870958 0.000895358 0.000919136 0.000942166 0.000964321 0.000985475 0.0010055 0.00102428 0.00104169 0.00105761 0.00107195 0.0010846 0.00109548 0.00110449 0.00111159 0.0011167 0.00111979 0.00112083 0.00111981 0.00111672 0.00111159 0.00110445 0.00109534 0.00108432 0.00107146 0.00105685 0.00104058 0.00102277 0.00100351 0.000982942 0.000961181 0.000938363 0.00091462 0.000890088 0.000864903 0.0008392 0.000813113 0.000786772 0.000760304 0.00073383 0.000707469 0.000681333 0.000655526 0.00063015 0.000605298 0.000581056 0.000557506 0.000534723 0.000512774 0.000491723 0.000471626 0.000452534 0.000434495 0.000417548 0.000401731 0.000387075 0.000373611 0.000361362 0.00035035 0.000340594 0.000332109 0.000324909 0.000319004 0.000314402 0.000311111 0.000309134 0.000308475 
0.000306909 0.000307531 0.000309397 0.000312505 0.000316853 0.000322434 0.000329243 0.000337273 0.000346513 0.000356953 0.000368579 0.000381376 0.000395325 0.000410407 0.000426596 0.000443867 0.000462189 0.000481528 0.000501845 0.000523098 0.000545239 0.000568218 0.000591975 0.000616448 0.000641568 0.000667262 0.000693447 0.000720038 0.000746942 0.000774058 0.000801282 0.000828503 0.000855604 0.000882463 0.000908954 0.000934946 0.000960305 0.000984896 0.00100858 0.00103122 0.00105268 0.00107283 0.00109153 0.00110867 0.00112412 0.00113777 0.00114953 0.0011593 0.00116701 0.00117261 0.00117603 0.00117725 0.00117626 0.00117305 0.00116764 0.00116007 0.00115038 0.00113864 0.00112494 0.00110935 0.00109199 0.00107298 0.00105243 0.00103049 0.00100728 0.000982957 0.000957659 0.000931535 0.000904733 0.000877399 0.000849675 0.000821703 0.000793617 0.000765547 0.00073762 0.000709951 0.000682655 0.000655835 0.000629589 0.000604008 0.000579177 0.000555171 0.000532062 0.000509913 0.000488782 0.000468721 0.000449777 0.000431991 0.000415399 0.000400034 0.000385925 0.000373094 0.000361564 0.000351352 0.000342473 0.000334941 0.000328764 0.000323953 0.000320511 0.000318445 0.000317756 
0.000316026 0.000316676 0.000318624 0.000321868 0.000326406 0.000332234 0.000339346 0.000347734 0.000357391 0.000368305 0.000380464 0.000393854 0.000408457 0.000424253 0.00044122 0.000459332 0.000478559 0.000498868 0.000520221 0.000542576 0.000565885 0.000590096 0.00061515 0.000640985 0.00066753 0.000694708 0.000722437 0.000750625 0.000779177 0.000807988 0.000836947 0.000865938 0.000894836 0.000923511 0.000951828 0.000979647 0.00100682 0.00103321 0.00105866 0.00108301 0.00110613 0.00112786 0.00114807 0.0011666 0.00118334 0.00119815 0.00121094 0.00122159 0.00123003 0.00123618 0.00123999 0.00124143 0.00124047 0.00123712 0.00123139 0.00122332 0.00121297 0.0012004 0.00118571 0.001169 0.00115038 0.00112999 0.00110795 0.00108442 0.00105954 0.00103348 0.00100639 0.000978435 0.000949775 0.000920567 0.000890966 0.000861124 0.000831187 0.000801293 0.000771575 0.00074216 0.000713166 0.000684702 0.000656872 0.00062977 0.000603484 0.000578092 0.000553668 0.000530277 0.000507977 0.000486821 0.000466855 0.000448122 0.000430658 0.000414493 0.000399656 0.000386171 0.000374057 0.000363332 0.000354011 0.000346106 0.000339625 0.000334577 0.000330967 0.000328799 0.000328077 
0.000326027 0.000326706 0.000328745 0.00033214 0.00033689 0.000342991 0.000350437 0.000359223 0.000369341 0.00038078 0.000393531 0.000407578 0.000422907 0.000439498 0.000457329 0.000476377 0.000496612 0.000518002 0.00054051 0.000564094 0.000588707 0.000614296 0.000640804 0.000668165 0.000696307 0.000725153 0.000754616 0.000784603 0.000815013 0.000845737 0.000876658 0.000907651 0.000938586 0.000969322 0.000999715 0.00102961 0.00105886 0.00108729 0.00111475 0.00114108 0.00116609 0.00118964 0.00121157 0.00123171 0.00124993 0.00126608 0.00128005 0.00129173 0.001301 0.0013078 0.00131207 0.00131375 0.00131284 0.00130933 0.00130324 0.0012946 0.00128349 0.00126997 0.00125415 0.00123615 0.00121608 0.0011941 0.00117035 0.001145 0.00111821 0.00109016 0.00106103 0.00103098 0.0010002 0.000968863 0.000937127 0.000905162 0.000873124 0.000841162 0.000809419 0.00077803 0.000747118 0.000716801 0.000687186 0.000658373 0.000630452 0.000603504 0.000577605 0.000552822 0.000529213 0.000506832 0.000485726 0.000465935 0.000447496 0.00043044 0.000414793 0.000400578 0.000387815 0.00037652 0.000366707 0.000358386 0.000351567 0.000346256 0.000342459 0.000340179 0.000339419 
0.000336886 0.000337599 0.000339736 0.000343297 0.000348279 0.000354679 0.000362493 0.000371715 0.000382339 0.000394356 0.000407757 0.000422527 0.000438654 0.00045612 0.000474904 0.000494984 0.000516331 0.000538915 0.0005627 0.000587644 0.000613702 0.00064082 0.00066894 0.000697998 0.000727918 0.000758623 0.000790022 0.000822018 0.000854508 0.000887375 0.000920496 0.000953741 0.000986967 0.00102003 0.00105276 0.00108501 0.0011166 0.00114736 0.00117711 0.00120566 0.00123284 0.00125847 0.00128236 0.00130434 0.00132426 0.00134196 0.00135729 0.00137013 0.00138037 0.00138792 0.00139271 0.00139469 0.00139384 0.00139014 0.00138364 0.00137435 0.00136237 0.00134777 0.00133066 0.00131118 0.00128946 0.00126566 0.00123996 0.00121254 0.00118358 0.00115327 0.00112181 0.0010894 0.00105622 0.00102246 0.000988315 0.000953954 0.000919548 0.00088526 0.000851241 0.000817635 0.000784574 0.000752183 0.000720573 0.000689849 0.000660104 0.000631424 0.000603884 0.000577553 0.000552491 0.000528752 0.000506381 0.00048542 0.000465903 0.000447861 0.000431319 0.000416299 0.000402819 0.000390895 0.000380539 0.000371761 0.000364569 0.000358969 0.000354966 0.000352563 0.000351762 
0.000348578 0.000349326 0.000351571 0.000355312 0.000360547 0.000367273 0.000375487 0.000385184 0.00039636 0.000409006 0.000423115 0.000438675 0.000455674 0.000474095 0.000493922 0.000515131 0.000537697 0.00056159 0.000586776 0.000613215 0.000640862 0.000669664 0.000699563 0.000730493 0.000762381 0.000795142 0.000828688 0.000862916 0.000897718 0.000932972 0.00096855 0.00100431 0.0010401 0.00107577 0.00111113 0.00114603 0.00118026 0.00121364 0.00124598 0.00127706 0.00130669 0.00133467 0.0013608 0.00138489 0.00140674 0.0014262 0.00144309 0.00145727 0.00146862 0.00147704 0.00148243 0.00148476 0.00148397 0.00148008 0.0014731 0.00146309 0.00145011 0.00143428 0.0014157 0.00139453 0.00137093 0.00134508 0.00131717 0.00128739 0.00125596 0.0012231 0.00118901 0.00115392 0.00111803 0.00108156 0.0010447 0.00100765 0.00097059 0.000933697 0.000897135 0.000861055 0.000825601 0.000790901 0.000757075 0.00072423 0.000692465 0.000661867 0.000632514 0.000604475 0.000577811 0.000552574 0.000528812 0.000506564 0.000485863 0.000466739 0.000449215 0.000433313 0.000419049 0.000406436 0.000395487 0.000386208 0.000378609 0.000372693 0.000368464 0.000365926 0.00036508 
0.000361071 0.000361858 0.00036422 0.000368155 0.000373663 0.000380741 0.000389388 0.000399599 0.000411372 0.0004247 0.000439577 0.000455993 0.000473937 0.000493397 0.000514355 0.000536792 0.000560685 0.000586006 0.000612721 0.000640793 0.000670177 0.000700823 0.000732673 0.000765659 0.000799709 0.000834736 0.000870649 0.000907343 0.000944704 0.000982605 0.00102091 0.00105947 0.00109812 0.00113669 0.001175 0.00121286 0.00125006 0.00128639 0.00132164 0.00135558 0.00138798 0.00141863 0.0014473 0.00147377 0.00149784 0.00151929 0.00153797 0.00155368 0.00156631 0.00157571 0.00158181 0.00158453 0.00158384 0.00157972 0.00157222 0.00156137 0.00154727 0.00153003 0.00150979 0.00148671 0.00146098 0.00143279 0.00140237 0.00136993 0.00133572 0.00129997 0.00126292 0.00122482 0.00118589 0.00114636 0.00110647 0.00106641 0.00102639 0.000986591 0.000947199 0.000908374 0.000870264 0.000833009 0.000796732 0.000761548 0.000727556 0.000694847 0.000663501 0.000633587 0.000605166 0.000578291 0.000553006 0.000529351 0.000507358 0.000487053 0.00046846 0.000451597 0.000436479 0.000423117 0.000411522 0.0004017 0.000393658 0.000387399 0.000382926 0.000380241 0.000379346 
0.000374334 0.000375162 0.000377649 0.000381793 0.000387594 0.000395051 0.000404162 0.000414927 0.000427343 0.000441404 0.000457108 0.000474446 0.000493411 0.000513992 0.000536173 0.000559939 0.000585269 0.000612136 0.000640511 0.000670357 0.000701632 0.000734287 0.000768264 0.000803498 0.000839913 0.000877425 0.000915938 0.000955344 0.000995524 0.00103635 0.00107767 0.00111933 0.00116115 0.00120296 0.00124455 0.00128572 0.00132624 0.00136588 0.0014044 0.00144156 0.00147709 0.00151076 0.0015423 0.00157148 0.00159805 0.00162179 0.0016425 0.00165997 0.00167405 0.00168459 0.0016915 0.00169468 0.00169409 0.00168974 0.00168163 0.00166985 0.00165448 0.00163565 0.00161352 0.00158827 0.00156012 0.00152929 0.00149603 0.00146059 0.00142323 0.00138423 0.00134385 0.00130237 0.00126003 0.0012171 0.00117381 0.0011304 0.00108708 0.00104407 0.00100154 0.000959674 0.000918632 0.000878559 0.000839586 0.00080183 0.000765396 0.000730375 0.000696848 0.000664886 0.000634548 0.000605887 0.000578946 0.000553762 0.000530365 0.00050878 0.000489027 0.000471124 0.000455081 0.000440909 0.000428616 0.000418207 0.000409686 0.000403056 0.00039832 0.000395477 0.00039453 