<?xml version="1.0"?>
<VTKFile type="StructuredGrid" version="0.1">
    <StructuredGrid WholeExtent="0 100 0 100 0 0">
        <Piece Extent="0 100 0 100 0 0">
            <Points>
                <DataArray type="Float64" NumberOfComponents="3" format="ascii">
-15 -15 0
-15 -14.7 0
-15 -14.4 0
-15 -14.1 0
-15 -13.8 0
-15 -13.5 0
-15 -13.2 0
-15 -12.9 0
-15 -12.6 0
-15 -12.3 0
-15 -12 0
-15 -11.7 0
-15 -11.4 0
-15 -11.1 0
-15 -10.8 0
-15 -10.5 0
-15 -10.2 0
-15 -9.9 0
-15 -9.6 0
-15 -9.3 0
-15 -9 0
-15 -8.7 0
-15 -8.4 0
-15 -8.1 0
-15 -7.8 0
-15 -7.5 0
-15 -7.2 0
-15 -6.9 0
-15 -6.6 0
-15 -6.3 0
-15 -6 0
-15 -5.7 0
-15 -5.4 0
-15 -5.1 0
-15 -4.8 0
-15 -4.5 0
-15 -4.2 0
-15 -3.9 0
-15 -3.6 0
-15 -3.3 0
-15 -3 0
-15 -2.7 0
-15 -2.4 0
-15 -2.1 0
-15 -1.8 0
-15 -1.5 0
-15 -1.2 0
-15 -0.9 0
-15 -0.6 0
-15 -0.3 0
-15 0 0
-15 0.3 0
-15 0.6 0
-15 0.9 0
-15 1.2 0
-15 1.5 0
-15 1.8 0
-15 2.1 0
-15 2.4 0
-15 2.7 0
-15 3 0
-15 3.3 0
-15 3.6 0
-15 3.9 0
-15 4.2 0
-15 4.5 0
-15 4.8 0
-15 5.1 0
-15 5.4 0
-15 5.7 0
-15 6 0
-15 6.3 0
-15 6.6 0
-15 6.9 0
-15 7.2 0
-15 7.5 0
-15 7.8 0
-15 8.1 0
-15 8.4 0
-15 8.7 0
-15 9 0
-15 9.3 0
-15 9.6 0
-15 9.9 0
-15 10.2 0
-15 10.5 0
-15 10.8 0
-15 11.1 0
-15 11.4 0
-15 11.7 0
-15 12 0
-15 12.3 0
-15 12.6 0
-15 12.9 0
-15 13.2 0
-15 13.5 0
-15 13.8 0
-15 14.1 0
-15 14.4 0
-15 14.7 0
-15 15 0
-14.7 -15 0
-14.7 -14.7 0
-14.7 -14.4 0
-14.7 -14.1 0
-14.7 -13.8 0
-14.7 -13.5 0
-14.7 -13.2 0
-14.7 -12.9 0
-14.7 -12.6 0
-14.7 -12.3 0
-14.7 -12 0
-14.7 -11.7 0
-14.7 -11.4 0
-14.7 -11.1 0
-14.7 -10.8 0
-14.7 -10.5 0
-14.7 -10.2 0
-14.7 -9.9 0
-14.7 -9.6 0
-14.7 -9.3 0
-14.7 -9 0
-14.7 -8.7 0
-14.7 -8.4 0
-14.7 -8.1 0
-14.7 -7.8 0
-14.7 -7.5 0
-14.7 -7.2 0
-14.7 -6.9 0
-14.7 -6.6 0
-14.7 -6.3 0
-14.7 -6 0
-14.7 -5.7 0
-14.7 -5.4 0
-14.7 -5.1 0
-14.7 -4.8 0
-14.7 -4.5 0
-14.7 -4.2 0
-14.7 -3.9 0
-14.7 -3.6 0
-14.7 -3.3 0
-14.7 -3 0
-14.7 -2.7 0
-14.7 -2.4 0
-14.7 -2.1 0
-14.7 -1.8 0
-14.7 -1.5 0
-14.7 -1.2 0
-14.7 -0.9 0
-14.7 -0.6 0
-14.7 -0.3 0
-14.7 0 0
-14.7 0.3 0
-14.7 0.6 0
-14.7 0.9 0
-14.7 1.2 0
-14.7 1.5 0
-14.7 1.8 0
-14.7 2.1 0
-14.7 2.4 0
-14.7 2.7 0
-14.7 3 0
-14.7 3.3 0
-14.7 3.6 0
-14.7 3.9 0
-14.7 4.2 0
-14.7 4.5 0
-14.7 4.8 0
-14.7 5.1 0
-14.7 5.4 0
-14.7 5.7 0
-14.7 6 0
-14.7 6.3 0
-14.7 6.6 0
-14.7 6.9 0
-14.7 7.2 0
-14.7 7.5 0
-14.7 7.8 0
-14.7 8.1 0
-14.7 8.4 0
-14.7 8.7 0
-14.7 9 0
-14.7 9.3 0
-14.7 9.6 0
-14.7 9.9 0
-14.7 10.2 0
-14.7 10.5 0
-14.7 10.8 0
-14.7 11.1 0
-14.7 11.4 0
-14.7 11.7 0
-14.7 12 0
-14.7 12.3 0
-14.7 12.6 0
-14.7 12.9 0
-14.7 13.2 0
-14.7 13.5 0
-14.7 13.8 0
-14.7 14.1 0
-14.7 14.4 0
-14.7 14.7 0
-14.7 15 0
-14.4 -15 0
-14.4 -14.7 0
-14.4 -14.4 0
-14.4 -14.1 0
-14.4 -13.8 0
-14.4 -13.5 0
-14.4 -13.2 0
-14.4 -12.9 0
-14.4 -12.6 0
-14.4 -12.3 0
-14.4 -12 0
-14.4 -11.7 0
-14.4 -11.4 0
-14.4 -11.1 0
-14.4 -10.8 0
-14.4 -10.5 0
-14.4 -10.2 0
-14.4 -9.9 0
-14.4 -9.6 0
-14.4 -9.3 0
-14.4 -9 0
-14.4 -8.7 0
-14.4 -8.4 0
-14.4 -8.1 0
-14.4 -7.8 0
-14.4 -7.5 0
-14.4 -7.2 0
-14.4 -6.9 0
-14.4 -6.6 0
-14.4 -6.3 0
-14.4 -6 0
-14.4 -5.7 0
-14.4 -5.4 0
-14.4 -5.1 0
-14.4 -4.8 0
-14.4 -4.5 0
-14.4 -4.2 0
-14.4 -3.9 0
-14.4 -3.6 0
-14.4 -3.3 0
-14.4 -3 0
-14.4 -2.7 0
-14.4 -2.4 0
-14.4 -2.1 0
-14.4 -1.8 0
-14.4 -1.5 0
-14.4 -1.2 0
-14.4 -0.9 0
-14.4 -0.6 0
-14.4 -0.3 0
-14.4 0 0
-14.4 0.3 0
-14.4 0.6 0
-14.4 0.9 0
-14.4 1.2 0
-14.4 1.5 0
-14.4 1.8 0
-14.4 2.1 0
-14.4 2.4 0
-14.4 2.7 0
-14.4 3 0
-14.4 3.3 0
-14.4 3.6 0
-14.4 3.9 0
-14.4 4.2 0
-14.4 4.5 0
-14.4 4.8 0
-14.4 5.1 0
-14.4 5.4 0
-14.4 5.7 0
-14.4 6 0
-14.4 6.3 0
-14.4 6.6 0
-14.4 6.9 0
-14.4 7.2 0
-14.4 7.5 0
-14.4 7.8 0
-14.4 8.1 0
-14.4 8.4 0
-14.4 8.7 0
-14.4 9 0
-14.4 9.3 0
-14.4 9.6 0
-14.4 9.9 0
-14.4 10.2 0
-14.4 10.5 0
-14.4 10.8 0
-14.4 11.1 0
-14.4 11.4 0
-14.4 11.7 0
-14.4 12 0
-14.4 12.3 0
-14.4 12.6 0
-14.4 12.9 0
-14.4 13.2 0
-14.4 13.5 0
-14.4 13.8 0
-14.4 14.1 0
-14.4 14.4 0
-14.4 14.7 0
-14.4 15 0
-14.1 -15 0
-14.1 -14.7 0
-14.1 -14.4 0
-14.1 -14.1 0
-14.1 -13.8 0
-14.1 -13.5 0
-14.1 -13.2 0
-14.1 -12.9 0
-14.1 -12.6 0
-14.1 -12.3 0
-14.1 -12 0
-14.1 -11.7 0
-14.1 -11.4 0
-14.1 -11.1 0
-14.1 -10.8 0
-14.1 -10.5 0
-14.1 -10.2 0
-14.1 -9.9 0
-14.1 -9.6 0
-14.1 -9.3 0
-14.1 -9 0
-14.1 -8.7 0
-14.1 -8.4 0
-14.1 -8.1 0
-14.1 -7.8 0
-14.1 -7.5 0
-14.1 -7.2 0
-14.1 -6.9 0
-14.1 -6.6 0
-14.1 -6.3 0
-14.1 -6 0
-14.1 -5.7 0
-14.1 -5.4 0
-14.1 -5.1 0
-14.1 -4.8 0
-14.1 -4.5 0
-14.1 -4.2 0
-14.1 -3.9 0
-14.1 -3.6 0
-14.1 -3.3 0
-14.1 -3 0
-14.1 -2.7 0
-14.1 -2.4 0
-14.1 -2.1 0
-14.1 -1.8 0
-14.1 -1.5 0
-14.1 -1.2 0
-14.1 -0.9 0
-14.1 -0.6 0
-14.1 -0.3 0
-14.1 0 0
-14.1 0.3 0
-14.1 0.6 0
-14.1 0.9 0
-14.1 1.2 0
-14.1 1.5 0
-14.1 1.8 0
-14.1 2.1 0
-14.1 2.4 0
-14.1 2.7 0
-14.1 3 0
-14.1 3.3 0
-14.1 3.6 0
-14.1 3.9 0
-14.1 4.2 0
-14.1 4.5 0
-14.1 4.8 0
-14.1 5.1 0
-14.1 5.4 0
-14.1 5.7 0
-14.1 6 0
-14.1 6.3 0
-14.1 6.6 0
-14.1 6.9 0
-14.1 7.2 0
-14.1 7.5 0
-14.1 7.8 0
-14.1 8.1 0
-14.1 8.4 0
-14.1 8.7 0
-14.1 9 0
-14.1 9.3 0
-14.1 9.6 0
-14.1 9.9 0
-14.1 10.2 0
-14.1 10.5 0
-14.1 10.8 0
-14.1 11.1 0
-14.1 11.4 0
-14.1 11.7 0
-14.1 12 0
-14.1 12.3 0
-14.1 12.6 0
-14.1 12.9 0
-14.1 13.2 0
-14.1 13.5 0
-14.1 13.8 0
-14.1 14.1 0
-14.1 14.4 0
-14.1 14.7 0
-14.1 15 0
-13.8 -15 0
-13.8 -14.7 0
-13.8 -14.4 0
-13.8 -14.1 0
-13.8 -13.8 0
-13.8 -13.5 0
-13.8 -13.2 0
-13.8 -12.9 0
-13.8 -12.6 0
-13.8 -12.3 0
-13.8 -12 0
-13.8 -11.7 0
-13.8 -11.4 0
-13.8 -11.1 0
-13.8 -10.8 0
-13.8 -10.5 0
-13.8 -10.2 0
-13.8 -9.9 0
-13.8 -9.6 0
-13.8 -9.3 0
-13.8 -9 0
-13.8 -8.7 0
-13.8 -8.4 0
-13.8 -8.1 0
-13.8 -7.8 0
-13.8 -7.5 0
-13.8 -7.2 0
-13.8 -6.9 0
-13.8 -6.6 0
-13.8 -6.3 0
-13.8 -6 0
-13.8 -5.7 0
-13.8 -5.4 0
-13.8 -5.1 0
-13.8 -4.8 0
-13.8 -4.5 0
-13.8 -4.2 0
-13.8 -3.9 0
-13.8 -3.6 0
-13.8 -3.3 0
-13.8 -3 0
-13.8 -2.7 0
-13.8 -2.4 0
-13.8 -2.1 0
-13.8 -1.8 0
-13.8 -1.5 0
-13.8 -1.2 0
-13.8 -0.9 0
-13.8 -0.6 0
-13.8 -0.3 0
-13.8 0 0
-13.8 0.3 0
-13.8 0.6 0
-13.8 0.9 0
-13.8 1.2 0
-13.8 1.5 0
-13.8 1.8 0
-13.8 2.1 0
-13.8 2.4 0
-13.8 2.7 0
-13.8 3 0
-13.8 3.3 0
-13.8 3.6 0
-13.8 3.9 0
-13.8 4.2 0
-13.8 4.5 0
-13.8 4.8 0
-13.8 5.1 0
-13.8 5.4 0
-13.8 5.7 0
-13.8 6 0
-13.8 6.3 0
-13.8 6.6 0
-13.8 6.9 0
-13.8 7.2 0
-13.8 7.5 0
-13.8 7.8 0
-13.8 8.1 0
-13.8 8.4 0
-13.8 8.7 0
-13.8 9 0
-13.8 9.3 0
-13.8 9.6 0
-13.8 9.9 0
-13.8 10.2 0
-13.8 10.5 0
-13.8 10.8 0
-13.8 11.1 0
-13.8 11.4 0
-13.8 11.7 0
-13.8 12 0
-13.8 12.3 0
-13.8 12.6 0
-13.8 12.9 0
-13.8 13.2 0
-13.8 13.5 0
-13.8 13.8 0
-13.8 14.1 0
-13.8 14.4 0
-13.8 14.7 0
-13.8 15 0
-13.5 -15 0
-13.5 -14.7 0
-13.5 -14.4 0
-13.5 -14.1 0
-13.5 -13.8 0
-13.5 -13.5 0
-13.5 -13.2 0
-13.5 -12.9 0
-13.5 -12.6 0
-13.5 -12.3 0
-13.5 -12 0
-13.5 -11.7 0
-13.5 -11.4 0
-13.5 -11.1 0
-13.5 -10.8 0
-13.5 -10.5 0
-13.5 -10.2 0
-13.5 -9.9 0
-13.5 -9.6 0
-13.5 -9.3 0
-13.5 -9 0
-13.5 -8.7 0
-13.5 -8.4 0
-13.5 -8.1 0
-13.5 -7.8 0
-13.5 -7.5 0
-13.5 -7.2 0
-13.5 -6.9 0
-13.5 -6.6 0
-13.5 -6.3 0
-13.5 -6 0
-13.5 -5.7 0
-13.5 -5.4 0
-13.5 -5.1 0
-13.5 -4.8 0
-13.5 -4.5 0
-13.5 -4.2 0
-13.5 -3.9 0
-13.5 -3.6 0
-13.5 -3.3 0
-13.5 -3 0
-13.5 -2.7 0
-13.5 -2.4 0
-13.5 -2.1 0
-13.5 -1.8 0
-13.5 -1.5 0
-13.5 -1.2 0
-13.5 -0.9 0
-13.5 -0.6 0
-13.5 -0.3 0
-13.5 0 0
-13.5 0.3 0
-13.5 0.6 0
-13.5 0.9 0
-13.5 1.2 0
-13.5 1.5 0
-13.5 1.8 0
-13.5 2.1 0
-13.5 2.4 0
-13.5 2.7 0
-13.5 3 0
-13.5 3.3 0
-13.5 3.6 0
-13.5 3.9 0
-13.5 4.2 0
-13.5 4.5 0
-13.5 4.8 0
-13.5 5.1 0
-13.5 5.4 0
-13.5 5.7 0
-13.5 6 0
-13.5 6.3 0
-13.5 6.6 0
-13.5 6.9 0
-13.5 7.2 0
-13.5 7.5 0
-13.5 7.8 0
-13.5 8.1 0
-13.5 8.4 0
-13.5 8.7 0
-13.5 9 0
-13.5 9.3 0
-13.5 9.6 0
-13.5 9.9 0
-13.5 10.2 0
-13.5 10.5 0
-13.5 10.8 0
-13.5 11.1 0
-13.5 11.4 0
-13.5 11.7 0
-13.5 12 0
-13.5 12.3 0
-13.5 12.6 0
-13.5 12.9 0
-13.5 13.2 0
-13.5 13.5 0
-13.5 13.8 0
-13.5 14.1 0
-13.5 14.4 0
-13.5 14.7 0
-13.5 15 0
-13.2 -15 0
-13.2 -14.7 0
-13.2 -14.4 0
-13.2 -14.1 0
-13.2 -13.8 0
-13.2 -13.5 0
-13.2 -13.2 0
-13.2 -12.9 0
-13.2 -12.6 0
-13.2 -12.3 0
-13.2 -12 0
-13.2 -11.7 0
-13.2 -11.4 0
-13.2 -11.1 0
-13.2 -10.8 0
-13.2 -10.5 0
-13.2 -10.2 0
-13.2 -9.9 0
-13.2 -9.6 0
-13.2 -9.3 0
-13.2 -9 0
-13.2 -8.7 0
-13.2 -8.4 0
-13.2 -8.1 0
-13.2 -7.8 0
-13.2 -7.5 0
-13.2 -7.2 0
-13.2 -6.9 0
-13.2 -6.6 0
-13.2 -6.3 0
-13.2 -6 0
-13.2 -5.7 0
-13.2 -5.4 0
-13.2 -5.1 0
-13.2 -4.8 0
-13.2 -4.5 0
-13.2 -4.2 0
-13.2 -3.9 0
-13.2 -3.6 0
-13.2 -3.3 0
-13.2 -3 0
-13.2 -2.7 0
-13.2 -2.4 0
-13.2 -2.1 0
-13.2 -1.8 0
-13.2 -1.5 0
-13.2 -1.2 0
-13.2 -0.9 0
-13.2 -0.6 0
-13.2 -0.3 0
-13.2 0 0
-13.2 0.3 0
-13.2 0.6 0
-13.2 0.9 0
-13.2 1.2 0
-13.2 1.5 0
-13.2 1.8 0
-13.2 2.1 0
-13.2 2.4 0
-13.2 2.7 0
-13.2 3 0
-13.2 3.3 0
-13.2 3.6 0
-13.2 3.9 0
-13.2 4.2 0
-13.2 4.5 0
-13.2 4.8 0
-13.2 5.1 0
-13.2 5.4 0
-13.2 5.7 0
-13.2 6 0
-13.2 6.3 0
-13.2 6.6 0
-13.2 6.9 0
-13.2 7.2 0
-13.2 7.5 0
-13.2 7.8 0
-13.2 8.1 0
-13.2 8.4 0
-13.2 8.7 0
-13.2 9 0
-13.2 9.3 0
-13.2 9.6 0
-13.2 9.9 0
-13.2 10.2 0
-13.2 10.5 0
-13.2 10.8 0
-13.2 11.1 0
-13.2 11.4 0
-13.2 11.7 0
-13.2 12 0
-13.2 12.3 0
-13.2 12.6 0
-13.2 12.9 0
-13.2 13.2 0
-13.2 13.5 0
-13.2 13.8 0
-13.2 14.1 0
-13.2 14.4 0
-13.2 14.7 0
-13.2 15 0
-12.9 -15 0
-12.9 -14.7 0
-12.9 -14.4 0
-12.9 -14.1 0
-12.9 -13.8 0
-12.9 -13.5 0
-12.9 -13.2 0
-12.9 -12.9 0
-12.9 -12.6 0
-12.9 -12.3 0
-12.9 -12 0
-12.9 -11.7 0
-12.9 -11.4 0
-12.9 -11.1 0
-12.9 -10.8 0
-12.9 -10.5 0
-12.9 -10.2 0
-12.9 -9.9 0
-12.9 -9.6 0
-12.9 -9.3 0
-12.9 -9 0
-12.9 -8.7 0
-12.9 -8.4 0
-12.9 -8.1 0
-12.9 -7.8 0
-12.9 -7.5 0
-12.9 -7.2 0
-12.9 -6.9 0
-12.9 -6.6 0
-12.9 -6.3 0
-12.9 -6 0
-12.9 -5.7 0
-12.9 -5.4 0
-12.9 -5.1 0
-12.9 -4.8 0
-12.9 -4.5 0
-12.9 -4.2 0
-12.9 -3.9 0
-12.9 -3.6 0
-12.9 -3.3 0
-12.9 -3 0
-12.9 -2.7 0
-12.9 -2.4 0
-12.9 -2.1 0
-12.9 -1.8 0
-12.9 -1.5 0
-12.9 -1.2 0
-12.9 -0.9 0
-12.9 -0.6 0
-12.9 -0.3 0
-12.9 0 0
-12.9 0.3 0
-12.9 0.6 0
-12.9 0.9 0
-12.9 1.2 0
-12.9 1.5 0
-12.9 1.8 0
-12.9 2.1 0
-12.9 2.4 0
-12.9 2.7 0
-12.9 3 0
-12.9 3.3 0
-12.9 3.6 0
-12.9 3.9 0
-12.9 4.2 0
-12.9 4.5 0
-12.9 4.8 0
-12.9 5.1 0
-12.9 5.4 0
-12.9 5.7 0
-12.9 6 0
-12.9 6.3 0
-12.9 6.6 0
-12.9 6.9 0
-12.9 7.2 0
-12.9 7.5 0
-12.9 7.8 0
-12.9 8.1 0
-12.9 8.4 0
-12.9 8.7 0
-12.9 9 0
[...]
            <PointData>
                <DataArray type="Float64" Name="c1" format="ascii">
0.00151673 0.00151844 0.00152358 0.00153213 0.0015441 0.00155947 0.00157824 0.00160039 0.0016259 0.00165475 0.00168692 0.00172237 0.00176106 0.00180295 0.00184799 0.00189611 0.00194724 0.0020013 0.00205819 0.00211781 0.00218004 0.00224474 0.00231176 0.00238094 0.00245209 0.00252501 0.00259948 0.00267526 0.00275211 0.00282974 0.00290786 0.00298618 0.00306436 0.00314207 0.00321896 0.00329467 0.00336882 0.00344106 0.00351099 0.00357825 0.00364246 0.00370325 0.00376027 0.00381318 0.00386166 0.00390541 0.00394415 0.00397765 0.00400569 0.0040281 0.00404473 0.00405549 0.00406031 0.00405918 0.00405213 0.0040392 0.00402052 0.00399621 0.00396647 0.00393151 0.00389157 0.00384694 0.00379791 0.00374481 0.00368798 0.00362778 0.00356459 0.00349877 0.00343072 0.00336081 0.00328943 0.00321696 0.00314376 0.0030702 0.00299663 0.00292338 0.00285077 0.00277911 0.0027087 0.00263979 0.00257266 0.00250752 0.00244461 0.00238413 0.00232626 0.00227117 0.00221901 0.00216993 0.00212405 0.00208148 0.00204231 0.00200663 0.00197453 0.00194606 0.00192128 0.00190024 0.00188297 0.00186951 0.00185987 0.00185409 0.00185216 
0.00151801 0.00151973 0.00152488 0.00153345 0.00154545 0.00156086 0.00157968 0.00160189 0.00162747 0.0016564 0.00168866 0.0017242 0.00176301 0.00180502 0.00185019 0.00189845 0.00194974 0.00200396 0.00206104 0.00212085 0.00218329 0.00224821 0.00231546 0.00238488 0.00245629 0.00252947 0.00260423 0.0026803 0.00275745 0.00283539 0.00291383 0.00299248 0.00307099 0.00314904 0.00322626 0.00330231 0.00337681 0.00344938 0.00351965 0.00358723 0.00365175 0.00371284 0.00377014 0.00382331 0.00387204 0.003916 0.00395495 0.00398861 0.00401679 0.00403931 0.00405602 0.00406682 0.00407166 0.00407051 0.0040634 0.0040504 0.0040316 0.00400715 0.00397724 0.00394208 0.00390192 0.00385704 0.00380775 0.00375437 0.00369724 0.00363674 0.00357323 0.00350708 0.0034387 0.00336846 0.00329675 0.00322394 0.00315042 0.00307653 0.00300264 0.00292908 0.00285617 0.00278422 0.00271352 0.00264435 0.00257695 0.00251157 0.00244842 0.00238772 0.00232964 0.00227436 0.00222202 0.00217277 0.00212673 0.00208401 0.00204472 0.00200893 0.00197672 0.00194816 0.0019233 0.00190219 0.00188487 0.00187137 0.0018617 0.0018559 0.00185397 
0.00152184 0.00152357 0.00152876 0.0015374 0.0015495 0.00156503 0.001584 0.00160638 0.00163217 0.00166134 0.00169386 0.00172971 0.00176884 0.00181122 0.00185678 0.00190548 0.00195724 0.00201197 0.00206958 0.00212998 0.00219303 0.0022586 0.00232655 0.00239671 0.00246888 0.00254287 0.00261847 0.00269542 0.00277347 0.00285235 0.00293175 0.00301138 0.0030909 0.00316996 0.00324821 0.00332529 0.00340081 0.00347439 0.00354565 0.0036142 0.00367966 0.00374165 0.0037998 0.00385377 0.00390323 0.00394786 0.00398739 0.00402157 0.00405017 0.00407301 0.00408996 0.0041009 0.00410578 0.00410457 0.0040973 0.00408404 0.0040649 0.00404002 0.0040096 0.00397384 0.00393301 0.0038874 0.00383732 0.00378309 0.00372508 0.00366365 0.00359918 0.00353206 0.00346268 0.00339144 0.00331873 0.00324492 0.0031704 0.00309554 0.00302069 0.00294619 0.00287238 0.00279955 0.002728 0.00265801 0.00258983 0.00252371 0.00245986 0.00239849 0.00233979 0.00228392 0.00223103 0.00218128 0.00213477 0.00209163 0.00205195 0.00201581 0.00198329 0.00195446 0.00192936 0.00190806 0.00189057 0.00187694 0.00186719 0.00186134 0.00185938 
0.00152822 0.00152997 0.00153523 0.00154398 0.00155623 0.00157197 0.00159118 0.00161387 0.00164 0.00166956 0.00170253 0.00173887 0.00177856 0.00182154 0.00186777 0.00191719 0.00196973 0.0020253 0.00208382 0.00214518 0.00220927 0.00227594 0.00234504 0.00241642 0.00248988 0.00256522 0.00264222 0.00272064 0.00280021 0.00288065 0.00296167 0.00304295 0.00312414 0.00320491 0.00328488 0.00336368 0.00344091 0.0035162 0.00358913 0.00365931 0.00372634 0.00378983 0.00384942 0.00390473 0.00395541 0.00400116 0.00404168 0.00407671 0.00410601 0.00412941 0.00414675 0.00415792 0.00416286 0.00416156 0.00415403 0.00414034 0.00412062 0.00409502 0.00406372 0.00402696 0.00398502 0.00393817 0.00388675 0.00383111 0.0037716 0.00370862 0.00364255 0.00357379 0.00350275 0.00342983 0.00335543 0.00327995 0.00320377 0.00312727 0.00305082 0.00297475 0.00289941 0.00282511 0.00275214 0.00268079 0.00261131 0.00254395 0.00247892 0.00241644 0.00235669 0.00229984 0.00224605 0.00219545 0.00214817 0.00210431 0.00206398 0.00202726 0.00199423 0.00196494 0.00193945 0.00191782 0.00190006 0.00188622 0.00187632 0.00187038 0.0018684 
0.00153712 0.00153891 0.00154425 0.00155317 0.00156563 0.00158165 0.00160122 0.00162432 0.00165093 0.00168105 0.00171464 0.00175168 0.00179214 0.00183597 0.00188314 0.00193357 0.0019872 0.00204396 0.00210375 0.00216647 0.002232 0.00230021 0.00237094 0.00244404 0.00251931 0.00259655 0.00267553 0.00275601 0.00283772 0.00292037 0.00300366 0.00308726 0.00317082 0.00325399 0.00333638 0.00341761 0.00349728 0.00357496 0.00365025 0.00372274 0.003792 0.00385763 0.00391924 0.00397644 0.00402888 0.00407621 0.00411813 0.00415436 0.00418466 0.00420884 0.00422673 0.00423823 0.00424326 0.00424182 0.00423391 0.00421963 0.00419908 0.00417244 0.00413991 0.00410174 0.00405819 0.0040096 0.0039563 0.00389864 0.00383702 0.00377184 0.0037035 0.00363242 0.00355903 0.00348374 0.00340696 0.00332912 0.0032506 0.00317179 0.00309308 0.00301481 0.00293732 0.00286094 0.00278598 0.00271271 0.00264139 0.00257229 0.00250561 0.00244157 0.00238035 0.00232213 0.00226706 0.00221527 0.0021669 0.00212205 0.00208081 0.00204327 0.00200951 0.00197959 0.00195355 0.00193145 0.00191332 0.00189919 0.00188908 0.00188301 0.00188098 
0.00154853 0.00155035 0.00155582 0.00156493 0.00157768 0.00159407 0.00161408 0.00163771 0.00166495 0.00169578 0.00173017 0.00176811 0.00180957 0.0018545 0.00190286 0.00195459 0.00200964 0.00206792 0.00212935 0.00219382 0.00226122 0.00233142 0.00240426 0.00247959 0.0025572 0.00263689 0.00271843 0.00280158 0.00288606 0.00297158 0.00305781 0.00314443 0.00323107 0.00331736 0.00340291 0.0034873 0.00357012 0.00365094 0.00372931 0.0038048 0.00387697 0.00394539 0.00400964 0.00406931 0.00412403 0.00417342 0.00421717 0.00425498 0.00428659 0.00431178 0.0043304 0.00434232 0.00434748 0.00434584 0.00433744 0.00432236 0.00430074 0.00427274 0.00423859 0.00419856 0.00415293 0.00410205 0.00404628 0.003986 0.00392162 0.00385357 0.00378227 0.00370817 0.00363171 0.00355333 0.00347347 0.00339255 0.00331099 0.00322919 0.00314754 0.00306641 0.00298615 0.00290708 0.00282953 0.00275378 0.0026801 0.00260874 0.00253992 0.00247387 0.00241075 0.00235076 0.00229404 0.00224073 0.00219095 0.00214481 0.0021024 0.00206381 0.00202912 0.00199837 0.00197163 0.00194893 0.00193031 0.00191581 0.00190543 0.0018992 0.00189712 
0.00156241 0.00156428 0.00156989 0.00157925 0.00159235 0.00160918 0.00162974 0.00165402 0.00168202 0.00171372 0.0017491 0.00178814 0.00183081 0.00187708 0.00192691 0.00198025 0.00203703 0.00209718 0.00216062 0.00222724 0.00229694 0.00236958 0.00244502 0.00252307 0.00260356 0.00268628 0.00277099 0.00285743 0.00294533 0.00303438 0.00312425 0.0032146 0.00330506 0.00339522 0.00348467 0.00357299 0.00365973 0.00374443 0.00382663 0.00390586 0.00398165 0.00405354 0.00412109 0.00418384 0.0042414 0.00429337 0.0043394 0.00437917 0.0044124 0.00443887 0.00445839 0.00447084 0.00447613 0.00447425 0.00446523 0.00444915 0.00442617 0.00439648 0.00436031 0.00431794 0.00426971 0.00421598 0.00415712 0.00409357 0.00402576 0.00395413 0.00387916 0.00380131 0.00372105 0.00363884 0.00355515 0.00347042 0.0033851 0.00329959 0.00321432 0.00312965 0.00304596 0.00296358 0.00288284 0.00280404 0.00272744 0.0026533 0.00258186 0.00251333 0.00244789 0.00238572 0.00232697 0.00227178 0.00222028 0.00217256 0.00212872 0.00208885 0.00205301 0.00202126 0.00199365 0.00197022 0.00195101 0.00193604 0.00192533 0.0019189 0.00191676 
0.00157872 0.00158065 0.00158644 0.00159608 0.00160959 0.00162694 0.00164815 0.00167321 0.00170211 0.00173484 0.00177138 0.00181172 0.00185584 0.0019037 0.00195527 0.0020105 0.00206934 0.00213171 0.00219753 0.00226672 0.00233915 0.00241469 0.00249321 0.00257453 0.00265845 0.00274477 0.00283326 0.00292364 0.00301562 0.0031089 0.00320314 0.00329797 0.00339299 0.00348779 0.00358195 0.00367499 0.00376645 0.00385583 0.00394264 0.00402639 0.00410655 0.00418264 0.00425416 0.00432064 0.00438164 0.00443673 0.00448552 0.00452766 0.00456287 0.00459087 0.00461148 0.00462456 0.00463001 0.00462783 0.00461804 0.00460076 0.00457612 0.00454436 0.00450573 0.00446054 0.00440915 0.00435195 0.00428937 0.00422185 0.00414989 0.00407395 0.00399454 0.00391216 0.00382732 0.0037405 0.00365221 0.00356291 0.00347307 0.00338313 0.00329352 0.00320462 0.00311683 0.0030305 0.00294595 0.0028635 0.00278343 0.00270599 0.00263142 0.00255994 0.00249173 0.00242698 0.00236582 0.00230841 0.00225486 0.00220527 0.00215974 0.00211833 0.00208114 0.00204819 0.00201956 0.00199526 0.00197535 0.00195983 0.00194874 0.00194207 0.00193985 
0.00159742 0.00159941 0.0016054 0.00161538 0.00162936 0.00164732 0.00166928 0.00169523 0.00172516 0.00175908 0.00179697 0.00183882 0.0018846 0.00193431 0.00198789 0.00204532 0.00210654 0.00217148 0.00224007 0.00231222 0.00238783 0.00246675 0.00254886 0.00263397 0.0027219 0.00281242 0.00290531 0.00300029 0.00309706 0.00319529 0.00329464 0.00339472 0.00349511 0.00359537 0.00369505 0.00379365 0.00389067 0.00398558 0.00407785 0.00416693 0.00425226 0.00433332 0.00440955 0.00448046 0.00454554 0.00460432 0.00465639 0.00470136 0.0047389 0.00476872 0.00479062 0.00480443 0.00481007 0.00480752 0.00479681 0.00477807 0.00475146 0.00471723 0.00467566 0.0046271 0.00457195 0.00451063 0.00444363 0.00437142 0.00429453 0.00421349 0.00412883 0.00404112 0.00395087 0.00385863 0.00376493 0.00367026 0.00357512 0.00347997 0.00338527 0.00329143 0.00319884 0.00310789 0.0030189 0.0029322 0.00284808 0.00276679 0.00268859 0.00261368 0.00254226 0.0024745 0.00241056 0.00235057 0.00229464 0.00224288 0.00219538 0.00215222 0.00211345 0.00207913 0.0020493 0.00202401 0.00200328 0.00198713 0.00197559 0.00196866 0.00196634 
0.00161845 0.00162052 0.00162673 0.00163709 0.0016516 0.00167026 0.00169306 0.00172002 0.00175114 0.0017864 0.00182582 0.00186937 0.00191706 0.00196885 0.00202473 0.00208465 0.00214858 0.00221646 0.00228821 0.00236374 0.00244297 0.00252576 0.00261196 0.00270142 0.00279393 0.00288928 0.00298723 0.00308749 0.00318976 0.00329371 0.00339894 0.00350508 0.00361167 0.00371826 0.00382434 0.00392939 0.00403287 0.00413421 0.00423282 0.00432811 0.00441948 0.00450633 0.00458808 0.00466415 0.004734 0.00479712 0.00485302 0.00490129 0.00494156 0.00497351 0.00499691 0.00501158 0.00501743 0.00501442 0.00500262 0.00498215 0.00495321 0.00491607 0.00487104 0.00481853 0.00475896 0.00469282 0.00462063 0.00454293 0.0044603 0.0043733 0.00428254 0.00418861 0.00409209 0.00399356 0.00389358 0.0037927 0.00369143 0.00359028 0.00348971 0.00339018 0.00329208 0.00319582 0.00310173 0.00301016 0.0029214 0.00283571 0.00275335 0.00267453 0.00259944 0.00252825 0.00246113 0.0023982 0.00233957 0.00228534 0.00223561 0.00219043 0.00214988 0.00211399 0.00208282 0.00205639 0.00203474 0.00201787 0.00200582 0.00199858 0.00199616 
0.00164175 0.00164391 0.00165037 0.00166116 0.00167626 0.00169569 0.00171944 0.00174753 0.00177996 0.00181674 0.00185786 0.00190333 0.00195314 0.00200727 0.00206572 0.00212845 0.00219542 0.00226659 0.00234189 0.00242124 0.00250455 0.00259169 0.00268252 0.00277689 0.00287459 0.0029754 0.00307908 0.00318535 0.00329387 0.0034043 0.00351626 0.00362931 0.00374299 0.0038568 0.00397022 0.00408267 0.00419357 0.0043023 0.00440821 0.00451067 0.004609 0.00470255 0.00479067 0.00487272 0.0049481 0.00501623 0.00507658 0.00512868 0.00517211 0.00520652 0.00523165 0.0052473 0.00525337 0.00524982 0.00523673 0.00521424 0.00518257 0.00514202 0.00509297 0.00503585 0.00497115 0.00489941 0.00482121 0.00473716 0.00464788 0.00455402 0.00445622 0.00435514 0.00425141 0.00414566 0.0040385 0.00393051 0.00382225 0.00371425 0.003607 0.00350099 0.00339663 0.00329434 0.00319449 0.0030974 0.00300339 0.00291273 0.00282568 0.00274244 0.00266321 0.00258818 0.00251747 0.00245124 0.00238957 0.00233258 0.00228033 0.0022329 0.00219035 0.00215271 0.00212002 0.00209233 0.00206963 0.00205197 0.00203934 0.00203176 0.00202923 
0.00166726 0.00166951 0.00167625 0.0016875 0.00170326 0.00172354 0.00174834 0.00177768 0.00181157 0.00185001 0.00189303 0.00194061 0.00199277 0.00204951 0.0021108 0.00217664 0.002247 0.00232183 0.00240108 0.00248468 0.00257253 0.00266453 0.00276053 0.00286038 0.00296389 0.00307083 0.00318095 0.00329395 0.00340951 0.00352727 0.0036468 0.00376766 0.00388936 0.00401137 0.00413312 0.00425399 0.00437334 0.00449049 0.00460476 0.0047154 0.00482171 0.00492294 0.00501837 0.0051073 0.00518903 0.00526293 0.00532839 0.00538489 0.00543196 0.0054692 0.00549631 0.00551308 0.00551938 0.00551519 0.00550058 0.00547573 0.00544088 0.00539639 0.00534267 0.00528022 0.0052096 0.00513141 0.00504629 0.00495494 0.00485804 0.00475632 0.00465048 0.00454124 0.00442931 0.00431535 0.00420003 0.00408399 0.00396781 0.00385207 0.00373729 0.00362398 0.00351258 0.00340352 0.00329719 0.00319392 0.00309404 0.00299782 0.00290553 0.00281736 0.00273353 0.0026542 0.00257952 0.00250961 0.00244457 0.0023845 0.00232947 0.00227954 0.00223477 0.00219519 0.00216083 0.00213172 0.00210788 0.00208933 0.00207607 0.00206811 0.00206546 
0.00169489 0.00169724 0.00170429 0.00171605 0.00173253 0.00175374 0.00177969 0.00181039 0.00184587 0.00188615 0.00193123 0.00198114 0.00203588 0.00209547 0.0021599 0.00222916 0.00230324 0.0023821 0.0024657 0.00255399 0.00264686 0.00274423 0.00284597 0.0029519 0.00306186 0.00317561 0.00329289 0.00341341 0.00353683 0.00366277 0.00379079 0.00392042 0.00405114 0.00418238 0.00431352 0.00444389 0.00457281 0.00469952 0.00482325 0.00494322 0.0050586 0.00516859 0.00527237 0.00536915 0.00545815 0.00553864 0.00560997 0.00567151 0.00572274 0.00576321 0.00579258 0.00581061 0.00581715 0.00581219 0.00579582 0.00576822 0.0057297 0.00568064 0.00562155 0.00555297 0.00547554 0.00538995 0.00529692 0.00519722 0.00509164 0.00498097 0.00486599 0.00474751 0.00462628 0.00450305 0.00437854 0.00425343 0.00412836 0.00400393 0.00388072 0.00375925 0.00364 0.0035234 0.00340985 0.00329972 0.00319332 0.00309095 0.00299285 0.00289924 0.00281032 0.00272625 0.00264717 0.00257321 0.00250446 0.00244101 0.00238292 0.00233025 0.00228304 0.00224132 0.00220513 0.00217448 0.00214938 0.00212986 0.00211591 0.00210753 0.00210474 
0.00172456 0.00172702 0.0017344 0.00174672 0.00176398 0.00178619 0.00181338 0.00184557 0.00188279 0.00192505 0.00197239 0.00202482 0.00208237 0.00214506 0.0022129 0.0022859 0.00236404 0.00244732 0.00253569 0.0026291 0.00272749 0.00283076 0.00293879 0.00305143 0.00316849 0.00328975 0.00341496 0.00354381 0.00367595 0.00381098 0.00394846 0.00408787 0.00422867 0.00437024 0.00451191 0.00465298 0.00479266 0.00493014 0.00506458 0.0051951 0.00532078 0.00544071 0.00555398 0.00565969 0.00575697 0.005845 0.00592301 0.0059903 0.00604628 0.00609043 0.00612236 0.00614181 0.0061486 0.00614273 0.00612429 0.00609352 0.00605075 0.00599645 0.00593117 0.00585556 0.00577033 0.00567628 0.00557423 0.00546505 0.0053496 0.00522878 0.00510348 0.00497456 0.00484287 0.00470923 0.0045744 0.00443914 0.00430414 0.00417004 0.00403745 0.00390691 0.00377894 0.003654 0.00353248 0.00341477 0.0033012 0.00319204 0.00308756 0.00298798 0.00289347 0.00280421 0.00272033 0.00264195 0.00256914 0.00250199 0.00244056 0.0023849 0.00233504 0.002291 0.00225281 0.00222048 0.00219402 0.00217343 0.00215873 0.0021499 0.00214696 
0.00175617 0.00175875 0.00176649 0.0017794 0.0017975 0.0018208 0.00184934 0.00188313 0.00192221 0.00196661 0.00201638 0.00207154 0.00213213 0.00219819 0.00226972 0.00234676 0.00242932 0.00251738 0.00261093 0.00270993 0.00281432 0.00292403 0.00303894 0.00315891 0.00328376 0.00341328 0.0035472 0.00368522 0.00382699 0.00397208 0.00412002 0.0042703 0.0044223 0.00457539 0.00472883 0.00488185 0.00503361 0.00518321 0.00532971 0.00547212 0.00560943 0.00574062 0.00586466 0.00598052 0.00608721 0.00618381 0.00626942 0.00634326 0.00640464 0.00645297 0.00648781 0.00650884 0.00651589 0.00650893 0.00648809 0.00645364 0.00640598 0.00634564 0.00627327 0.00618961 0.00609549 0.00599181 0.0058795 0.00575954 0.00563293 0.00550066 0.00536372 0.00522307 0.00507964 0.00493434 0.00478801 0.00464144 0.0044954 0.00435057 0.00420759 0.00406704 0.00392946 0.00379533 0.00366506 0.00353903 0.00341759 0.00330102 0.00318957 0.00308347 0.00298288 0.00288798 0.00279887 0.00271568 0.00263847 0.00256732 0.00250227 0.00244337 0.00239063 0.00234408 0.00230373 0.00226959 0.00224165 0.00221992 0.0022044 0.00219509 0.00219199 
0.00178962 0.00179233 0.00180045 0.001814 0.001833 0.00185746 0.00188743 0.00192294 0.00196402 0.00201072 0.0020631 0.00212119 0.00218505 0.00225471 0.00233023 0.00241163 0.00249894 0.00259217 0.00269131 0.00279636 0.00290726 0.00302396 0.00314634 0.00327429 0.00340764 0.00354617 0.00368963 0.0038377 0.00399003 0.00414619 0.00430569 0.00446797 0.00463239 0.00479827 0.00496481 0.00513117 0.00529643 0.00545961 0.00561964 0.00577545 0.00592588 0.00606979 0.00620601 0.00633337 0.00645075 0.00655707 0.00665134 0.00673262 0.00680014 0.00685323 0.00689135 0.00691415 0.00692145 0.0069132 0.00688957 0.00685087 0.00679758 0.0067303 0.00664981 0.00655695 0.00645268 0.00633803 0.00621407 0.00608192 0.0059427 0.00579753 0.00564751 0.00549371 0.00533717 0.00517887 0.00501974 0.00486063 0.00470237 0.00454568 0.00439125 0.0042397 0.00409157 0.00394737 0.00380752 0.00367243 0.00354241 0.00341777 0.00329876 0.00318558 0.00307841 0.00297739 0.00288264 0.00279425 0.0027123 0.00263683 0.00256789 0.0025055 0.00244967 0.00240043 0.00235776 0.00232166 0.00229214 0.00226919 0.0022528 0.00224296 0.00223969 
0.0018248 0.00182764 0.00183617 0.0018504 0.00187035 0.00189606 0.00192755 0.00196488 0.0020081 0.00205725 0.00211241 0.00217363 0.00224097 0.0023145 0.00239428 0.00248035 0.00257276 0.00267153 0.0027767 0.00288826 0.00300618 0.00313041 0.00326089 0.00339748 0.00354004 0.00368837 0.00384222 0.00400127 0.00416516 0.00433346 0.00450565 0.00468115 0.00485929 0.00503932 0.0052204 0.00540161 0.00558193 0.00576028 0.00593549 0.00610634 0.00627155 0.00642981 0.00657979 0.00672018 0.00684967 0.00696704 0.00707113 0.00716089 0.00723538 0.00729385 0.00733569 0.00736048 0.007368 0.00735823 0.00733135 0.00728774 0.00722796 0.00715273 0.00706292 0.00695955 0.00684372 0.0067166 0.00657944 0.00643351 0.00628007 0.00612039 0.00595571 0.00578722 0.00561605 0.0054433 0.00526996 0.00509699 0.00492524 0.00475551 0.00458851 0.0044249 0.00426524 0.00411006 0.0039598 0.00381484 0.00367553 0.00354216 0.00341497 0.00329415 0.00317988 0.00307228 0.00297146 0.0028775 0.00279045 0.00271036 0.00263724 0.00257112 0.002512 0.00245987 0.00241472 0.00237655 0.00234533 0.00232107 0.00230375 0.00229336 0.0022899 
0.00186158 0.00186456 0.00187352 0.00188847 0.00190943 0.00193645 0.00196956 0.00200883 0.0020543 0.00210606 0.00216417 0.00222871 0.00229976 0.0023774 0.00246171 0.00255276 0.00265061 0.00275532 0.00286693 0.00298546 0.00311091 0.00324325 0.00338243 0.00352835 0.00368087 0.00383981 0.00400492 0.00417591 0.00435241 0.00453396 0.00472006 0.00491008 0.00510332 0.00529897 0.00549615 0.00569383 0.00589092 0.00608621 0.00627841 0.00646614 0.00664797 0.0068224 0.00698794 0.00714306 0.00728629 0.00741621 0.00753146 0.00763084 0.00771327 0.00777785 0.00782388 0.00785089 0.00785862 0.00784704 0.00781639 0.0077671 0.00769984 0.00761546 0.00751499 0.00739961 0.0072706 0.00712932 0.00697721 0.0068157 0.00664625 0.00647028 0.00628919 0.00610429 0.00591686 0.00572807 0.00553903 0.00535076 0.00516418 0.00498015 0.0047994 0.00462263 0.00445042 0.00428331 0.00412175 0.00396613 0.00381679 0.003674 0.003538 0.00340898 0.00328709 0.00317244 0.00306513 0.00296521 0.00287273 0.0027877 0.00271015 0.00264005 0.00257742 0.00252222 0.00247444 0.00243406 0.00240105 0.0023754 0.00235709 0.00234611 0.00234245 