<?xml version="1.0"?>
<VTKFile type="StructuredGrid" version="0.1">
    <StructuredGrid WholeExtent="0 100 0 100 0 0">
        <Piece Extent="0 100 0 100 0 0">
            <Points>
                <DataArray type="Float64" NumberOfComponents="3" format="ascii">
-15 -15 0
-15 -14.7 0
-15 -14.4 0
-15 -14.1 0
-15 -13.8 0
-15 -13.5 0
-15 -13.2 0
-15 -12.9 0
-15 -12.6 0
-15 -12.3 0
-15 -12 0
-15 -11.7 0
-15 -11.4 0
-15 -11.1 0
-15 -10.8 0
-15 -10.5 0
-15 -10.2 0
-15 -9.9 0
-15 -9.6 0
-15 -9.3 0
-15 -9 0
-15 -8.7 0
-15 -8.4 0
-15 -8.1 0
-15 -7.8 0
-15 -7.5 0
-15 -7.2 0
-15 -6.9 0
-15 -6.6 0
-15 -6.3 0
-15 -6 0
-15 -5.7 0
-15 -5.4 0
-15 -5.1 0
-15 -4.8 0
-15 -4.5 0
-15 -4.2 0
-15 -3.9 0
-15 -3.6 0
-15 -3.3 0
-15 -3 0
-15 -2.7 0
-15 -2.4 0
-15 -2.1 0
-15 -1.8 0
-15 -1.5 0
-15 -1.2 0
-15 -0.9 0
-15 -0.6 0
-15 -0.3 0
-15 0 0
-15 0.3 0
-15 0.6 0
-15 0.9 0
-15 1.2 0
-15 1.5 0
-15 1.8 0
-15 2.1 0
-15 2.4 0
-15 2.7 0
-15 3 0
-15 3.3 0
-15 3.6 0
-15 3.9 0
-15 4.2 0
-15 4.5 0
-15 4.8 0
-15 5.1 0
-15 5.4 0
-15 5.7 0
-15 6 0
-15 6.3 0
-15 6.6 0
-15 6.9 0
-15 7.2 0
-15 7.5 0
-15 7.8 0
-15 8.1 0
-15 8.4 0
-15 8.7 0
-15 9 0
-15 9.3 0
-15 9.6 0
-15 9.9 0
-15 10.2 0
-15 10.5 0
-15 10.8 0
-15 11.1 0
-15 11.4 0
-15 11.7 0
-15 12 0
-15 12.3 0
-15 12.6 0
-15 12.9 0
-15 13.2 0
-15 13.5 0
-15 13.8 0
-15 14.1 0
-15 14.4 0
-15 14.7 0
-15 15 0
-14.7 -15 0
-14.7 -14.7 0
-14.7 -14.4 0
-14.7 -14.1 0
-14.7 -13.8 0
-14.7 -13.5 0
-14.7 -13.2 0
-14.7 -12.9 0
-14.7 -12.6 0
-14.7 -12.3 0
-14.7 -12 0
-14.7 -11.7 0
-14.7 -11.4 0
-14.7 -11.1 0
-14.7 -10.8 0
-14.7 -10.5 0
-14.7 -10.2 0
-14.7 -9.9 0
-14.7 -9.6 0
-14.7 -9.3 0
-14.7 -9 0
-14.7 -8.7 0
-14.7 -8.4 0
-14.7 -8.1 0
-14.7 -7.8 0
-14.7 -7.5 0
-14.7 -7.2 0
-14.7 -6.9 0
-14.7 -6.6 0
-14.7 -6.3 0
-14.7 -6 0
-14.7 -5.7 0
-14.7 -5.4 0
-14.7 -5.1 0
-14.7 -4.8 0
-14.7 -4.5 0
-14.7 -4.2 0
-14.7 -3.9 0
-14.7 -3.6 0
-14.7 -3.3 0
-14.7 -3 0
-14.7 -2.7 0
-14.7 -2.4 0
-14.7 -2.1 0
-14.7 -1.8 0
-14.7 -1.5 0
-14.7 -1.2 0
-14.7 -0.9 0
-14.7 -0.6 0
-14.7 -0.3 0
-14.7 0 0
-14.7 0.3 0
-14.7 0.6 0
-14.7 0.9 0
-14.7 1.2 0
-14.7 1.5 0
-14.7 1.8 0
-14.7 2.1 0
-14.7 2.4 0
-14.7 2.7 0
-14.7 3 0
-14.7 3.3 0
-14.7 3.6 0
-14.7 3.9 0
-14.7 4.2 0
-14.7 4.5 0
-14.7 4.8 0
-14.7 5.1 0
-14.7 5.4 0
-14.7 5.7 0
-14.7 6 0
-14.7 6.3 0
-14.7 6.6 0
-14.7 6.9 0
-14.7 7.2 0
-14.7 7.5 0
-14.7 7.8 0
-14.7 8.1 0
-14.7 8.4 0
-14.7 8.7 0
-14.7 9 0
-14.7 9.3 0
-14.7 9.6 0
-14.7 9.9 0
-14.7 10.2 0
-14.7 10.5 0
-14.7 10.8 0
-14.7 11.1 0
-14.7 11.4 0
-14.7 11.7 0
-14.7 12 0
-14.7 12.3 0
-14.7 12.6 0
-14.7 12.9 0
-14.7 13.2 0
-14.7 13.5 0
-14.7 13.8 0
-14.7 14.1 0
-14.7 14.4 0
-14.7 14.7 0
-14.7 15 0
-14.4 -15 0
-14.4 -14.7 0
-14.4 -14.4 0
-14.4 -14.1 0
-14.4 -13.8 0
-14.4 -13.5 0
-14.4 -13.2 0
-14.4 -12.9 0
-14.4 -12.6 0
-14.4 -12.3 0
-14.4 -12 0
-14.4 -11.7 0
-14.4 -11.4 0
-14.4 -11.1 0
-14.4 -10.8 0
-14.4 -10.5 0
-14.4 -10.2 0
-14.4 -9.9 0
-14.4 -9.6 0
-14.4 -9.3 0
-14.4 -9 0
-14.4 -8.7 0
-14.4 -8.4 0
-14.4 -8.1 0
-14.4 -7.8 0
-14.4 -7.5 0
-14.4 -7.2 0
-14.4 -6.9 0
-14.4 -6.6 0
-14.4 -6.3 0
-14.4 -6 0
-14.4 -5.7 0
-14.4 -5.4 0
-14.4 -5.1 0
-14.4 -4.8 0
-14.4 -4.5 0
-14.4 -4.2 0
-14.4 -3.9 0
-14.4 -3.6 0
-14.4 -3.3 0
-14.4 -3 0
-14.4 -2.7 0
-14.4 -2.4 0
-14.4 -2.1 0
-14.4 -1.8 0
-14.4 -1.5 0
-14.4 -1.2 0
-14.4 -0.9 0
-14.4 -0.6 0
-14.4 -0.3 0
-14.4 0 0
-14.4 0.3 0
-14.4 0.6 0
-14.4 0.9 0
-14.4 1.2 0
-14.4 1.5 0
-14.4 1.8 0
-14.4 2.1 0
-14.4 2.4 0
-14.4 2.7 0
-14.4 3 0
-14.4 3.3 0
-14.4 3.6 0
-14.4 3.9 0
-14.4 4.2 0
-14.4 4.5 0
-14.4 4.8 0
-14.4 5.1 0
-14.4 5.4 0
-14.4 5.7 0
-14.4 6 0
-14.4 6.3 0
-14.4 6.6 0
-14.4 6.9 0
-14.4 7.2 0
-14.4 7.5 0
-14.4 7.8 0
-14.4 8.1 0
-14.4 8.4 0
-14.4 8.7 0
-14.4 9 0
-14.4 9.3 0
-14.4 9.6 0
-14.4 9.9 0
-14.4 10.2 0
-14.4 10.5 0
-14.4 10.8 0
-14.4 11.1 0
-14.4 11.4 0
-14.4 11.7 0
-14.4 12 0
-14.4 12.3 0
-14.4 12.6 0
-14.4 12.9 0
-14.4 13.2 0
-14.4 13.5 0
-14.4 13.8 0
-14.4 14.1 0
-14.4 14.4 0
-14.4 14.7 0
-14.4 15 0
-14.1 -15 0
-14.1 -14.7 0
-14.1 -14.4 0
-14.1 -14.1 0
-14.1 -13.8 0
-14.1 -13.5 0
-14.1 -13.2 0
-14.1 -12.9 0
-14.1 -12.6 0
-14.1 -12.3 0
-14.1 -12 0
-14.1 -11.7 0
-14.1 -11.4 0
-14.1 -11.1 0
-14.1 -10.8 0
-14.1 -10.5 0
-14.1 -10.2 0
-14.1 -9.9 0
-14.1 -9.6 0
-14.1 -9.3 0
-14.1 -9 0
-14.1 -8.7 0
-14.1 -8.4 0
-14.1 -8.1 0
-14.1 -7.8 0
-14.1 -7.5 0
-14.1 -7.2 0
-14.1 -6.9 0
-14.1 -6.6 0
-14.1 -6.3 0
-14.1 -6 0
-14.1 -5.7 0
-14.1 -5.4 0
-14.1 -5.1 0
-14.1 -4.8 0
-14.1 -4.5 0
-14.1 -4.2 0
-14.1 -3.9 0
-14.1 -3.6 0
-14.1 -3.3 0
-14.1 -3 0
-14.1 -2.7 0
-14.1 -2.4 0
-14.1 -2.1 0
-14.1 -1.8 0
-14.1 -1.5 0
-14.1 -1.2 0
-14.1 -0.9 0
-14.1 -0.6 0
-14.1 -0.3 0
-14.1 0 0
-14.1 0.3 0
-14.1 0.6 0
-14.1 0.9 0
-14.1 1.2 0
-14.1 1.5 0
-14.1 1.8 0
-14.1 2.1 0
-14.1 2.4 0
-14.1 2.7 0
-14.1 3 0
-14.1 3.3 0
-14.1 3.6 0
-14.1 3.9 0
-14.1 4.2 0
-14.1 4.5 0
-14.1 4.8 0
-14.1 5.1 0
-14.1 5.4 0
-14.1 5.7 0
-14.1 6 0
-14.1 6.3 0
-14.1 6.6 0
-14.1 6.9 0
-14.1 7.2 0
-14.1 7.5 0
-14.1 7.8 0
-14.1 8.1 0
-14.1 8.4 0
-14.1 8.7 0
-14.1 9 0
-14.1 9.3 0
-14.1 9.6 0
-14.1 9.9 0
-14.1 10.2 0
-14.1 10.5 0
-14.1 10.8 0
-14.1 11.1 0
-14.1 11.4 0
-14.1 11.7 0
-14.1 12 0
-14.1 12.3 0
-14.1 12.6 0
-14.1 12.9 0
-14.1 13.2 0
-14.1 13.5 0
-14.1 13.8 0
-14.1 14.1 0
-14.1 14.4 0
-14.1 14.7 0
-14.1 15 0
-13.8 -15 0
-13.8 -14.7 0
-13.8 -14.4 0
-13.8 -14.1 0
-13.8 -13.8 0
-13.8 -13.5 0
-13.8 -13.2 0
-13.8 -12.9 0
-13.8 -12.6 0
-13.8 -12.3 0
-13.8 -12 0
-13.8 -11.7 0
-13.8 -11.4 0
-13.8 -11.1 0
-13.8 -10.8 0
-13.8 -10.5 0
-13.8 -10.2 0
-13.8 -9.9 0
-13.8 -9.6 0
-13.8 -9.3 0
-13.8 -9 0
-13.8 -8.7 0
-13.8 -8.4 0
-13.8 -8.1 0
-13.8 -7.8 0
-13.8 -7.5 0
-13.8 -7.2 0
-13.8 -6.9 0
-13.8 -6.6 0
-13.8 -6.3 0
-13.8 -6 0
-13.8 -5.7 0
-13.8 -5.4 0
-13.8 -5.1 0
-13.8 -4.8 0
-13.8 -4.5 0
-13.8 -4.2 0
-13.8 -3.9 0
-13.8 -3.6 0
-13.8 -3.3 0
-13.8 -3 0
-13.8 -2.7 0
-13.8 -2.4 0
-13.8 -2.1 0
-13.8 -1.8 0
-13.8 -1.5 0
-13.8 -1.2 0
-13.8 -0.9 0
-13.8 -0.6 0
-13.8 -0.3 0
-13.8 0 0
-13.8 0.3 0
-13.8 0.6 0
-13.8 0.9 0
-13.8 1.2 0
-13.8 1.5 0
-13.8 1.8 0
-13.8 2.1 0
-13.8 2.4 0
-13.8 2.7 0
-13.8 3 0
-13.8 3.3 0
-13.8 3.6 0
-13.8 3.9 0
-13.8 4.2 0
-13.8 4.5 0
-13.8 4.8 0
-13.8 5.1 0
-13.8 5.4 0
-13.8 5.7 0
-13.8 6 0
-13.8 6.3 0
-13.8 6.6 0
-13.8 6.9 0
-13.8 7.2 0
-13.8 7.5 0
-13.8 7.8 0
-13.8 8.1 0
-13.8 8.4 0
-13.8 8.7 0
-13.8 9 0
-13.8 9.3 0
-13.8 9.6 0
-13.8 9.9 0
-13.8 10.2 0
-13.8 10.5 0
-13.8 10.8 0
-13.8 11.1 0
-13.8 11.4 0
-13.8 11.7 0
-13.8 12 0
-13.8 12.3 0
-13.8 12.6 0
-13.8 12.9 0
-13.8 13.2 0
-13.8 13.5 0
-13.8 13.8 0
-13.8 14.1 0
-13.8 14.4 0
-13.8 14.7 0
-13.8 15 0
-13.5 -15 0
-13.5 -14.7 0
-13.5 -14.4 0
-13.5 -14.1 0
-13.5 -13.8 0
-13.5 -13.5 0
-13.5 -13.2 0
-13.5 -12.9 0
-13.5 -12.6 0
-13.5 -12.3 0
-13.5 -12 0
-13.5 -11.7 0
-13.5 -11.4 0
-13.5 -11.1 0
-13.5 -10.8 0
-13.5 -10.5 0
-13.5 -10.2 0
-13.5 -9.9 0
-13.5 -9.6 0
-13.5 -9.3 0
-13.5 -9 0
-13.5 -8.7 0
-13.5 -8.4 0
-13.5 -8.1 0
-13.5 -7.8 0
-13.5 -7.5 0
-13.5 -7.2 0
-13.5 -6.9 0
-13.5 -6.6 0
-13.5 -6.3 0
-13.5 -6 0
-13.5 -5.7 0
-13.5 -5.4 0
-13.5 -5.1 0
-13.5 -4.8 0
-13.5 -4.5 0
-13.5 -4.2 0
-13.5 -3.9 0
-13.5 -3.6 0
-13.5 -3.3 0
-13.5 -3 0
-13.5 -2.7 0
-13.5 -2.4 0
-13.5 -2.1 0
-13.5 -1.8 0
-13.5 -1.5 0
-13.5 -1.2 0
-13.5 -0.9 0
-13.5 -0.6 0
-13.5 -0.3 0
-13.5 0 0
-13.5 0.3 0
-13.5 0.6 0
-13.5 0.9 0
-13.5 1.2 0
-13.5 1.5 0
-13.5 1.8 0
-13.5 2.1 0
-13.5 2.4 0
-13.5 2.7 0
-13.5 3 0
-13.5 3.3 0
-13.5 3.6 0
-13.5 3.9 0
-13.5 4.2 0
-13.5 4.5 0
-13.5 4.8 0
-13.5 5.1 0
-13.5 5.4 0
-13.5 5.7 0
-13.5 6 0
-13.5 6.3 0
-13.5 6.6 0
-13.5 6.9 0
-13.5 7.2 0
-13.5 7.5 0
-13.5 7.8 0
-13.5 8.1 0
-13.5 8.4 0
-13.5 8.7 0
-13.5 9 0
-13.5 9.3 0
-13.5 9.6 0
-13.5 9.9 0
-13.5 10.2 0
-13.5 10.5 0
-13.5 10.8 0
-13.5 11.1 0
-13.5 11.4 0
-13.5 11.7 0
-13.5 12 0
-13.5 12.3 0
-13.5 12.6 0
-13.5 12.9 0
-13.5 13.2 0
-13.5 13.5 0
-13.5 13.8 0
-13.5 14.1 0
-13.5 14.4 0
-13.5 14.7 0
-13.5 15 0
-13.2 -15 0
-13.2 -14.7 0
-13.2 -14.4 0
-13.2 -14.1 0
-13.2 -13.8 0
-13.2 -13.5 0
-13.2 -13.2 0
-13.2 -12.9 0
-13.2 -12.6 0
-13.2 -12.3 0
-13.2 -12 0
-13.2 -11.7 0
-13.2 -11.4 0
-13.2 -11.1 0
-13.2 -10.8 0
-13.2 -10.5 0
-13.2 -10.2 0
-13.2 -9.9 0
-13.2 -9.6 0
-13.2 -9.3 0
-13.2 -9 0
-13.2 -8.7 0
-13.2 -8.4 0
-13.2 -8.1 0
-13.2 -7.8 0
-13.2 -7.5 0
-13.2 -7.2 0
-13.2 -6.9 0
-13.2 -6.6 0
-13.2 -6.3 0
-13.2 -6 0
-13.2 -5.7 0
-13.2 -5.4 0
-13.2 -5.1 0
-13.2 -4.8 0
-13.2 -4.5 0
-13.2 -4.2 0
-13.2 -3.9 0
-13.2 -3.6 0
-13.2 -3.3 0
-13.2 -3 0
-13.2 -2.7 0
-13.2 -2.4 0
-13.2 -2.1 0
-13.2 -1.8 0
-13.2 -1.5 0
-13.2 -1.2 0
-13.2 -0.9 0
-13.2 -0.6 0
-13.2 -0.3 0
-13.2 0 0
-13.2 0.3 0
-13.2 0.6 0
-13.2 0.9 0
-13.2 1.2 0
-13.2 1.5 0
-13.2 1.8 0
-13.2 2.1 0
-13.2 2.4 0
-13.2 2.7 0
-13.2 3 0
-13.2 3.3 0
-13.2 3.6 0
-13.2 3.9 0
-13.2 4.2 0
-13.2 4.5 0
-13.2 4.8 0
-13.2 5.1 0
-13.2 5.4 0
-13.2 5.7 0
-13.2 6 0
-13.2 6.3 0
-13.2 6.6 0
-13.2 6.9 0
-13.2 7.2 0
-13.2 7.5 0
-13.2 7.8 0
-13.2 8.1 0
-13.2 8.4 0
-13.2 8.7 0
-13.2 9 0
-13.2 9.3 0
-13.2 9.6 0
-13.2 9.9 0
-13.2 10.2 0
-13.2 10.5 0
-13.2 10.8 0
-13.2 11.1 0
-13.2 11.4 0
-13.2 11.7 0
-13.2 12 0
-13.2 12.3 0
-13.2 12.6 0
-13.2 12.9 0
-13.2 13.2 0
-13.2 13.5 0
-13.2 13.8 0
-13.2 14.1 0
-13.2 14.4 0
-13.2 14.7 0
-13.2 15 0
-12.9 -15 0
-12.9 -14.7 0
-12.9 -14.4 0
-12.9 -14.1 0
-12.9 -13.8 0
-12.9 -13.5 0
-12.9 -13.2 0
-12.9 -12.9 0
-12.9 -12.6 0
-12.9 -12.3 0
-12.9 -12 0
-12.9 -11.7 0
-12.9 -11.4 0
-12.9 -11.1 0
-12.9 -10.8 0
-12.9 -10.5 0
-12.9 -10.2 0
-12.9 -9.9 0
-12.9 -9.6 0
-12.9 -9.3 0
-12.9 -9 0
-12.9 -8.7 0
-12.9 -8.4 0
-12.9 -8.1 0
-12.9 -7.8 0
-12.9 -7.5 0
-12.9 -7.2 0
-12.9 -6.9 0
-12.9 -6.6 0
-12.9 -6.3 0
-12.9 -6 0
-12.9 -5.7 0
-12.9 -5.4 0
-12.9 -5.1 0
-12.9 -4.8 0
-12.9 -4.5 0
-12.9 -4.2 0
-12.9 -3.9 0
-12.9 -3.6 0
-12.9 -3.3 0
-12.9 -3 0
-12.9 -2.7 0
-12.9 -2.4 0
-12.9 -2.1 0
-12.9 -1.8 0
-12.9 -1.5 0
-12.9 -1.2 0
-12.9 -0.9 0
-12.9 -0.6 0
-12.9 -0.3 0
-12.9 0 0
-12.9 0.3 0
-12.9 0.6 0
-12.9 0.9 0
-12.9 1.2 0
-12.9 1.5 0
-12.9 1.8 0
-12.9 2.1 0
-12.9 2.4 0
-12.9 2.7 0
-12.9 3 0
-12.9 3.3 0
-12.9 3.6 0
-12.9 3.9 0
-12.9 4.2 0
-12.9 4.5 0
-12.9 4.8 0
-12.9 5.1 0
-12.9 5.4 0
-12.9 5.7 0
-12.9 6 0
-12.9 6.3 0
-12.9 6.6 0
-12.9 6.9 0
-12.9 7.2 0
-12.9 7.5 0
-12.9 7.8 0
-12.9 8.1 0
-12.9 8.4 0
-12.9 8.7 0
-12.9 9 0
[...]
            <PointData>
                <DataArray type="Float64" Name="c1" format="ascii">
0.00186588 0.001868 0.00187437 0.00188497 0.0018998 0.00191884 0.00194208 0.00196947 0.00200101 0.00203664 0.00207632 0.00212001 0.00216764 0.00221914 0.00227443 0.00233343 0.00239602 0.0024621 0.00253154 0.00260418 0.00267988 0.00275844 0.00283968 0.00292338 0.0030093 0.0030972 0.00318679 0.00327779 0.00336988 0.00346271 0.00355595 0.00364921 0.0037421 0.00383422 0.00392514 0.00401444 0.00410168 0.0041864 0.00426818 0.00434655 0.00442109 0.00449137 0.00455697 0.00461751 0.00467261 0.00472194 0.00476519 0.00480209 0.00483241 0.00485597 0.00487262 0.00488227 0.00488487 0.00488044 0.00486902 0.00485072 0.00482569 0.00479413 0.00475627 0.0047124 0.00466282 0.00460788 0.00454795 0.00448344 0.00441475 0.00434231 0.00426657 0.00418797 0.00410696 0.00402398 0.00393947 0.00385387 0.0037676 0.00368107 0.00359468 0.00350879 0.00342378 0.00333998 0.00325771 0.00317729 0.00309898 0.00302306 0.00294977 0.00287933 0.00281195 0.00274783 0.00268713 0.00263001 0.00257661 0.00252705 0.00248146 0.00243993 0.00240255 0.00236939 0.00234053 0.00231602 0.0022959 0.00228021 0.00226899 0.00226225 0.00226 
0.00186741 0.00186954 0.00187592 0.00188655 0.00190141 0.0019205 0.00194379 0.00197125 0.00200286 0.00203858 0.00207837 0.00212217 0.00216992 0.00222155 0.002277 0.00233616 0.00239893 0.0024652 0.00253483 0.0026077 0.00268362 0.00276243 0.00284393 0.00292791 0.00301412 0.00310232 0.00319224 0.00328357 0.00337599 0.00346919 0.00356279 0.00365642 0.00374969 0.0038422 0.00393351 0.0040232 0.00411083 0.00419594 0.00427809 0.00435683 0.00443173 0.00450234 0.00456827 0.0046291 0.00468448 0.00473405 0.00477752 0.0048146 0.00484507 0.00486873 0.00488546 0.00489514 0.00489774 0.00489326 0.00488176 0.00486335 0.00483816 0.00480641 0.00476834 0.00472421 0.00467436 0.00461912 0.00455887 0.00449402 0.00442497 0.00435217 0.00427605 0.00419707 0.00411567 0.00403231 0.00394742 0.00386144 0.0037748 0.0036879 0.00360115 0.00351492 0.00342957 0.00334545 0.00326288 0.00318216 0.00310357 0.00302739 0.00295385 0.00288318 0.00281558 0.00275125 0.00269036 0.00263306 0.0025795 0.0025298 0.00248407 0.00244243 0.00240494 0.00237169 0.00234275 0.00231817 0.00229799 0.00228227 0.00227101 0.00226425 0.002262 
0.00187199 0.00187414 0.00188056 0.00189126 0.00190623 0.00192546 0.00194891 0.00197658 0.00200842 0.00204441 0.00208449 0.00212863 0.00217675 0.0022288 0.00228469 0.00234434 0.00240763 0.00247447 0.00254472 0.00261824 0.00269486 0.00277441 0.0028567 0.0029415 0.00302859 0.0031177 0.00320857 0.0033009 0.00339436 0.00348862 0.00358332 0.00367808 0.00377249 0.00386616 0.00395865 0.00404951 0.00413831 0.00422458 0.00430787 0.00438773 0.00446369 0.00453533 0.00460222 0.00466395 0.00472015 0.00477047 0.00481458 0.00485221 0.00488312 0.00490712 0.00492406 0.00493385 0.00493643 0.00493183 0.00492008 0.00490131 0.00487566 0.00484335 0.00480461 0.00475973 0.00470904 0.0046529 0.00459168 0.0045258 0.00445569 0.00438179 0.00430454 0.00422441 0.00414186 0.00405733 0.00397129 0.00388417 0.00379641 0.00370841 0.00362059 0.00353332 0.00344697 0.00336188 0.00327838 0.00319678 0.00311736 0.00304038 0.00296609 0.00289471 0.00282645 0.00276151 0.00270005 0.00264222 0.00258818 0.00253804 0.00249191 0.00244991 0.0024121 0.00237857 0.00234939 0.00232461 0.00230427 0.00228842 0.00227707 0.00227026 0.00226798 
0.00187961 0.00188178 0.00188828 0.00189911 0.00191426 0.00193371 0.00195745 0.00198544 0.00201768 0.00205411 0.00209469 0.00213939 0.00218813 0.00224086 0.0022975 0.00235796 0.00242214 0.00248992 0.00256119 0.0026358 0.00271359 0.00279438 0.00287797 0.00296416 0.00305271 0.00314336 0.00323583 0.00332982 0.00342501 0.00352106 0.0036176 0.00371424 0.00381058 0.0039062 0.00400065 0.00409349 0.00418426 0.00427248 0.00435768 0.0044394 0.00451716 0.00459052 0.00465903 0.00472228 0.00477986 0.00483142 0.00487662 0.00491517 0.00494683 0.00497139 0.0049887 0.00499866 0.00500123 0.0049964 0.00498425 0.00496487 0.00493844 0.00490517 0.00486531 0.00481917 0.00476708 0.00470941 0.00464657 0.00457897 0.00450706 0.00443131 0.00435216 0.00427011 0.00418561 0.00409914 0.00401117 0.00392214 0.00383249 0.00374265 0.00365303 0.00356402 0.00347599 0.00338929 0.00330424 0.00322116 0.00314033 0.00306203 0.00298648 0.00291393 0.00284457 0.0027786 0.00271618 0.00265748 0.00260263 0.00255175 0.00250496 0.00246236 0.00242402 0.00239003 0.00236045 0.00233533 0.00231472 0.00229865 0.00228715 0.00228025 0.00227794 
0.00189025 0.00189246 0.00189906 0.00191007 0.00192546 0.00194523 0.00196936 0.00199782 0.0020306 0.00206765 0.00210894 0.00215442 0.00220403 0.00225772 0.0023154 0.002377 0.00244242 0.00251154 0.00258424 0.00266038 0.0027398 0.00282233 0.00290777 0.00299591 0.00308651 0.00317931 0.00327404 0.00337038 0.00346801 0.00356657 0.00366571 0.00376501 0.00386407 0.00396244 0.00405968 0.00415531 0.00424886 0.00433984 0.00442776 0.00451212 0.00459243 0.00466823 0.00473905 0.00480444 0.00486398 0.00491731 0.00496405 0.00500392 0.00503663 0.00506199 0.00507983 0.00509004 0.00509257 0.00508744 0.0050747 0.00505447 0.00502692 0.00499229 0.00495085 0.00490291 0.00484882 0.00478899 0.00472384 0.0046538 0.00457935 0.00450096 0.00441913 0.00433435 0.00424711 0.00415789 0.00406718 0.00397544 0.00388314 0.0037907 0.00369855 0.00360709 0.00351669 0.00342771 0.00334048 0.00325532 0.00317252 0.00309234 0.00301503 0.00294082 0.00286991 0.0028025 0.00273875 0.00267881 0.00262283 0.00257092 0.00252319 0.00247975 0.00244067 0.00240603 0.00237589 0.00235029 0.0023293 0.00231293 0.00230122 0.00229419 0.00229185 
0.00190388 0.00190613 0.00191287 0.0019241 0.00193981 0.00195999 0.00198462 0.00201368 0.00204716 0.00208501 0.0021272 0.00217369 0.00222443 0.00227935 0.00233838 0.00240145 0.00246845 0.00253929 0.00261384 0.00269196 0.00277349 0.00285827 0.0029461 0.00303676 0.00313002 0.00322561 0.00332325 0.00342264 0.00352343 0.00362527 0.00372778 0.00383054 0.00393313 0.00403509 0.00413595 0.00423522 0.00433241 0.00442699 0.00451844 0.00460626 0.00468991 0.0047689 0.00484273 0.00491093 0.00497306 0.0050287 0.00507747 0.00511905 0.00515316 0.00517957 0.0051981 0.00520863 0.00521112 0.00520558 0.00519206 0.00517071 0.00514171 0.00510529 0.00506177 0.00501146 0.00495477 0.00489211 0.00482392 0.00475069 0.00467291 0.0045911 0.00450576 0.00441741 0.00432658 0.00423378 0.00413951 0.00404426 0.00394849 0.00385268 0.00375724 0.00366259 0.00356911 0.00347718 0.00338713 0.00329928 0.00321392 0.00313132 0.00305173 0.00297538 0.00290247 0.0028332 0.00276772 0.00270619 0.00264875 0.00259551 0.00254658 0.00250206 0.00246202 0.00242654 0.00239567 0.00236947 0.00234798 0.00233123 0.00231925 0.00231206 0.00230966 
0.00192045 0.00192275 0.00192965 0.00194116 0.00195726 0.00197794 0.00200319 0.00203299 0.00206732 0.00210615 0.00214944 0.00219717 0.00224928 0.0023057 0.00236639 0.00243126 0.00250022 0.00257316 0.00264998 0.00273053 0.00281466 0.0029022 0.00299297 0.00308673 0.00318326 0.00328229 0.00338354 0.00348668 0.00359138 0.00369727 0.00380395 0.003911 0.00401797 0.00412438 0.00422975 0.00433355 0.00443525 0.00453432 0.00463019 0.00472231 0.00481014 0.00489311 0.00497071 0.00504243 0.00510778 0.00516632 0.00521763 0.00526137 0.00529722 0.00532494 0.00534433 0.00535528 0.00535771 0.00535165 0.00533717 0.00531441 0.00528357 0.00524492 0.00519878 0.00514552 0.00508556 0.00501935 0.00494738 0.00487016 0.00478823 0.00470213 0.00461241 0.00451964 0.00442435 0.00432709 0.0042284 0.00412878 0.00402873 0.00392872 0.00382921 0.00373062 0.00363334 0.00353776 0.00344423 0.00335305 0.00326454 0.00317897 0.00309658 0.00301759 0.00294223 0.00287066 0.00280306 0.00273958 0.00268035 0.00262547 0.00257507 0.00252922 0.00248801 0.0024515 0.00241975 0.00239281 0.00237071 0.00235349 0.00234118 0.00233378 0.00233132 
0.00193991 0.00194227 0.00194938 0.00196121 0.00197776 0.00199904 0.00202501 0.00205568 0.00209102 0.00213101 0.00217561 0.0022248 0.00227853 0.00233675 0.0023994 0.0024664 0.00253767 0.00261312 0.00269263 0.00277607 0.00286329 0.00295412 0.00304838 0.00314584 0.00324628 0.00334942 0.00345497 0.00356261 0.00367199 0.00378273 0.00389442 0.00400662 0.00411885 0.00423063 0.00434142 0.00445068 0.00455784 0.00466233 0.00476354 0.00486088 0.00495376 0.00504158 0.00512376 0.00519975 0.00526902 0.00533108 0.00538549 0.00543185 0.00546983 0.00549915 0.00551959 0.00553103 0.0055334 0.00552671 0.00551104 0.00548656 0.00545348 0.00541211 0.00536279 0.00530593 0.00524199 0.00517148 0.00509491 0.00501285 0.00492588 0.00483459 0.00473958 0.00464145 0.00454077 0.00443814 0.00433412 0.00422924 0.00412404 0.004019 0.00391461 0.00381129 0.00370947 0.00360953 0.00351182 0.00341668 0.00332441 0.00323529 0.00314955 0.00306744 0.00298914 0.00291486 0.00284474 0.00277894 0.00271757 0.00266077 0.00260861 0.00256119 0.00251859 0.00248086 0.00244807 0.00242024 0.00239743 0.00237966 0.00236695 0.00235932 0.00235677 
0.0019622 0.00196464 0.00197197 0.00198418 0.00200126 0.00202322 0.00205003 0.0020817 0.00211821 0.00215953 0.00220565 0.00225653 0.00231213 0.00237242 0.00243734 0.00250681 0.00258077 0.00265912 0.00274175 0.00282854 0.00291935 0.00301401 0.00311234 0.00321411 0.0033191 0.00342704 0.00353762 0.00365053 0.00376539 0.00388183 0.0039994 0.00411765 0.00423608 0.00435417 0.00447136 0.00458708 0.0047007 0.0048116 0.00491915 0.00502269 0.00512157 0.00521514 0.00530278 0.00538386 0.00545781 0.00552408 0.00558219 0.00563169 0.00567221 0.00570343 0.00572514 0.00573717 0.00573945 0.005732 0.00571492 0.00568837 0.00565262 0.00560798 0.00555486 0.0054937 0.00542502 0.00534937 0.00526732 0.00517951 0.00508656 0.00498911 0.00488783 0.00478334 0.0046763 0.00456733 0.00445701 0.00434595 0.00423468 0.00412373 0.00401359 0.00390474 0.00379759 0.00369254 0.00358996 0.00349019 0.00339353 0.00330027 0.00321064 0.00312488 0.00304318 0.00296574 0.00289269 0.0028242 0.00276037 0.00270132 0.00264713 0.0025979 0.00255369 0.00251455 0.00248054 0.0024517 0.00242806 0.00240965 0.00239648 0.00238857 0.00238594 
0.00198726 0.00198979 0.00199737 0.00201 0.00202768 0.00205041 0.00207818 0.00211098 0.00214881 0.00219165 0.00223948 0.00229228 0.00235002 0.00241266 0.00248015 0.00255243 0.00262945 0.0027111 0.0027973 0.00288792 0.00298283 0.00308186 0.00318485 0.00329156 0.00340178 0.00351522 0.00363159 0.00375056 0.00387174 0.00399474 0.00411911 0.00424437 0.00436999 0.00449541 0.00462005 0.00474327 0.00486442 0.00498282 0.00509777 0.00520856 0.00531448 0.00541481 0.00550885 0.00559592 0.00567538 0.00574662 0.00580908 0.00586228 0.00590579 0.00593927 0.00596246 0.00597519 0.00597737 0.00596903 0.00595026 0.00592128 0.00588236 0.00583387 0.00577626 0.00571004 0.00563577 0.00555407 0.0054656 0.00537102 0.00527106 0.00516641 0.00505779 0.0049459 0.00483144 0.00471508 0.00459746 0.0044792 0.0043609 0.00424311 0.00412635 0.00401109 0.0038978 0.00378687 0.0036787 0.00357361 0.00347191 0.0033739 0.00327982 0.00318989 0.0031043 0.00302324 0.00294686 0.0028753 0.00280866 0.00274705 0.00269056 0.00263926 0.00259322 0.00255248 0.00251709 0.0024871 0.00246252 0.00244337 0.00242969 0.00242147 0.00241874 
0.002015 0.00201762 0.00202548 0.00203859 0.00205694 0.00208053 0.00210937 0.00214344 0.00218275 0.00222728 0.00227703 0.00233197 0.0023921 0.00245737 0.00252775 0.00260319 0.00268364 0.00276901 0.00285921 0.00295415 0.00305368 0.00315765 0.00326589 0.0033782 0.00349433 0.00361402 0.00373696 0.00386281 0.0039912 0.00412169 0.00425382 0.00438709 0.00452095 0.00465479 0.00478798 0.00491985 0.00504968 0.00517674 0.00530026 0.00541946 0.00553355 0.00564173 0.00574322 0.00583727 0.00592315 0.00600018 0.00606774 0.00612527 0.00617228 0.0062084 0.00623333 0.00624687 0.00624893 0.00623953 0.00621879 0.00618694 0.00614432 0.00609132 0.00602847 0.00595632 0.00587554 0.0057868 0.00569083 0.00558841 0.00548031 0.00536731 0.00525021 0.00512977 0.00500675 0.00488188 0.00475587 0.00462937 0.00450301 0.00437739 0.00425306 0.00413051 0.00401022 0.00389261 0.00377807 0.00366694 0.00355955 0.00345617 0.00335705 0.0032624 0.00317244 0.00308731 0.00300717 0.00293215 0.00286235 0.00279788 0.00273879 0.00268518 0.00263708 0.00259455 0.00255762 0.00252633 0.0025007 0.00248074 0.00246648 0.00245791 0.00245506 
0.00204533 0.00204806 0.00205623 0.00206987 0.00208895 0.0021135 0.00214351 0.00217898 0.00221992 0.00226633 0.00231819 0.00237552 0.00243828 0.00250647 0.00258006 0.002659 0.00274326 0.00283276 0.00292743 0.00302716 0.00313184 0.00324133 0.00335546 0.00347402 0.00359678 0.00372348 0.00385381 0.00398742 0.00412392 0.00426288 0.0044038 0.00454616 0.00468936 0.00483278 0.00497572 0.00511747 0.00525724 0.00539423 0.00552759 0.00565646 0.00577995 0.0058972 0.00600731 0.00610944 0.00620276 0.00628651 0.00635998 0.00642254 0.00647363 0.00651282 0.00653976 0.00655424 0.00655616 0.00654552 0.00652248 0.0064873 0.00644035 0.00638212 0.00631316 0.00623415 0.0061458 0.00604891 0.0059443 0.00583281 0.00571534 0.00559274 0.0054659 0.00533566 0.00520286 0.00506828 0.0049327 0.00479682 0.00466132 0.00452683 0.00439392 0.00426313 0.00413495 0.00400981 0.00388812 0.00377022 0.00365643 0.00354703 0.00344228 0.00334237 0.00324751 0.00315785 0.00307352 0.00299466 0.00292135 0.00285368 0.00279173 0.00273554 0.00268517 0.00264065 0.00260201 0.00256929 0.00254249 0.00252163 0.00250672 0.00249778 0.0024948 
0.00207816 0.002081 0.00208952 0.00210372 0.00212361 0.0021492 0.00218049 0.0022175 0.00226022 0.00230868 0.00236287 0.0024228 0.00248846 0.00255986 0.00263697 0.00271976 0.00280821 0.00290226 0.00300185 0.00310688 0.00321726 0.00333285 0.0034535 0.003579 0.00370914 0.00384364 0.00398221 0.00412449 0.00427008 0.00441853 0.00456932 0.00472191 0.00487566 0.0050299 0.0051839 0.00533685 0.00548793 0.00563623 0.00578082 0.00592076 0.00605504 0.00618269 0.00630271 0.00641415 0.00651606 0.00660758 0.00668788 0.00675626 0.00681207 0.00685482 0.0068841 0.00689967 0.00690141 0.00688933 0.00686362 0.00682457 0.00677261 0.00670829 0.00663228 0.00654532 0.00644826 0.00634197 0.0062274 0.00610552 0.0059773 0.00584373 0.00570577 0.00556437 0.00542045 0.00527486 0.00512844 0.00498196 0.00483615 0.00469167 0.00454914 0.00440911 0.0042721 0.00413855 0.00400887 0.00388342 0.00376252 0.00364645 0.00353544 0.00342971 0.00332943 0.00323475 0.00314581 0.00306271 0.00298553 0.00291436 0.00284924 0.00279022 0.00273735 0.00269065 0.00265014 0.00261584 0.00258776 0.00256592 0.00255031 0.00254094 0.00253782 
0.00211336 0.00211633 0.00212522 0.00214004 0.00216081 0.00218752 0.00222021 0.00225888 0.00230354 0.00235422 0.00241094 0.0024737 0.00254252 0.0026174 0.00269835 0.00278534 0.00287837 0.0029774 0.00308237 0.00319322 0.00330985 0.00343215 0.00355996 0.00369312 0.0038314 0.00397454 0.00412223 0.00427413 0.00442983 0.00458885 0.00475067 0.00491471 0.00508029 0.00524671 0.00541315 0.00557877 0.00574263 0.00590377 0.00606115 0.00621369 0.00636029 0.00649985 0.00663124 0.00675336 0.00686515 0.00696561 0.00705381 0.0071289 0.00719017 0.00723702 0.00726901 0.00728584 0.00728736 0.00727362 0.0072448 0.00720126 0.0071435 0.00707216 0.006988 0.00689189 0.00678479 0.00666772 0.00654174 0.00640796 0.00626748 0.00612141 0.00597082 0.00581676 0.00566025 0.00550223 0.00534361 0.00518522 0.00502785 0.0048722 0.00471892 0.00456859 0.00442175 0.00427886 0.00414034 0.00400654 0.00387778 0.00375434 0.00363645 0.00352431 0.00341808 0.00331791 0.00322391 0.00313617 0.00305476 0.00297975 0.00291118 0.00284908 0.00279349 0.00274441 0.00270186 0.00266585 0.00263638 0.00261346 0.00259709 0.00258727 0.00258399 
0.00215083 0.00215393 0.00216322 0.00217871 0.00220041 0.00222834 0.00226253 0.00230299 0.00234974 0.00240283 0.00246227 0.00252809 0.00260031 0.00267897 0.00276407 0.00285562 0.00295361 0.00305804 0.00316887 0.00328604 0.00340949 0.00353911 0.00367477 0.00381631 0.00396352 0.00411616 0.00427391 0.00443643 0.0046033 0.00477405 0.00494813 0.00512492 0.00530372 0.00548375 0.00566417 0.00584403 0.00602233 0.00619798 0.00636984 0.00653671 0.00669735 0.0068505 0.00699489 0.00712926 0.0072524 0.00736314 0.00746042 0.00754327 0.00761084 0.00766244 0.00769755 0.00771582 0.0077171 0.00770142 0.007669 0.00762027 0.00755581 0.00747635 0.0073828 0.00727616 0.00715753 0.0070281 0.00688907 0.00674171 0.00658727 0.006427 0.0062621 0.00609374 0.00592304 0.00575105 0.00557874 0.00540703 0.00523675 0.00506866 0.00490344 0.0047417 0.00458399 0.00443078 0.00428251 0.00413952 0.00400214 0.00387063 0.0037452 0.00362606 0.00351334 0.00340718 0.00330767 0.00321488 0.00312888 0.00304971 0.0029774 0.00291196 0.00285342 0.00280177 0.00275701 0.00271916 0.00268819 0.00266411 0.00264691 0.0026366 0.00263316 
0.00219042 0.00219366 0.00220338 0.00221958 0.00224229 0.00227153 0.00230731 0.00234969 0.00239868 0.00245434 0.0025167 0.0025858 0.00266169 0.0027444 0.00283397 0.00293042 0.00303377 0.00314403 0.00326119 0.00338521 0.00351605 0.00365362 0.00379782 0.00394849 0.00410546 0.00426847 0.00443725 0.00461144 0.00479062 0.00497431 0.00516195 0.00535288 0.00554638 0.00574161 0.00593765 0.00613349 0.00632802 0.00652005 0.00670829 0.00689141 0.00706801 0.00723665 0.00739589 0.00754429 0.00768045 0.00780302 0.00791076 0.00800254 0.00807737 0.00813446 0.00817317 0.00819312 0.0081941 0.00817618 0.0081396 0.00808486 0.00801265 0.00792384 0.00781947 0.00770071 0.00756886 0.00742526 0.00727133 0.00710849 0.00693819 0.00676183 0.00658076 0.00639628 0.00620964 0.00602199 0.00583439 0.00564782 0.00546319 0.0052813 0.00510286 0.00492852 0.00475884 0.00459431 0.00443534 0.0042823 0.0041355 0.00399518 0.00386156 0.0037348 0.00361504 0.00350238 0.00339691 0.00329867 0.00320771 0.00312406 0.00304771 0.00297868 0.00291697 0.00286255 0.00281543 0.00277559 0.00274301 0.00271769 0.00269961 0.00268876 0.00268515 
0.002232 0.00223539 0.00224556 0.00226252 0.0022863 0.00231692 0.00235441 0.00239882 0.0024502 0.0025086 0.00257407 0.00264667 0.00272647 0.00281352 0.00290787 0.00300957 0.00311867 0.00323519 0.00335915 0.00349055 0.00362936 0.00377552 0.00392896 0.00408954 0.0042571 0.00443142 0.00461223 0.00479918 0.00499186 0.00518978 0.00539236 0.00559894 0.00580873 0.00602085 0.00623433 0.00644804 0.00666079 0.00687124 0.00707799 0.00727951 0.00747423 0.00766052 0.00783672 0.00800118 0.00815227 0.00828843 0.00840821 0.0085103 0.00859352 0.00865695 0.00869984 0.00872171 0.00872236 0.00870183 0.00866043 0.00859874 0.00851757 0.00841796 0.00830112 0.00816844 0.0080214 0.00786159 0.00769064 0.0075102 0.00732189 0.00712732 0.006928 0.0067254 0.00652089 0.00631573 0.00611108 0.00590801 0.00570748 0.00551034 0.00531734 0.00512915 0.00494633 0.0047694 0.00459876 0.00443477 0.00427772 0.00412785 0.00398535 0.00385035 0.00372299 0.00360333 0.00349144 0.00338734 0.00329106 0.00320259 0.00312192 0.00304905 0.00298394 0.00292657 0.00287692 0.00283496 0.00280066 0.00277401 0.00275499 0.00274358 0.00273978 
0.00227541 0.00227896 0.00228961 0.00230737 0.00233228 0.00236436 0.00240365 0.00245023 0.00250413 0.00256543 0.0026342 0.00271052 0.00279447 0.00288613 0.00298557 0.00309287 0.00320809 0.00333131 0.00346256 0.00360186 0.00374922 0.00390463 0.00406801 0.00423929 0.00441831 0.00460489 0.00479877 0.00499962 0.00520705 0.00542056 0.00563956 0.00586337 0.00609117 0.00632203 0.0065549 0.00678857 0.00702172 0.00725289 0.0074805 0.00770285 0.00791814 0.00812453 0.00832009 0.00850293 0.00867115 0.00882295 0.00895661 0.00907059 0.00916352 0.00923429 0.00928201 0.00930613 0.00930639 0.00928284 0.00923585 0.00916612 0.00907459 0.0089625 0.00883129 0.00868257 0.00851811 0.00833974 0.00814936 0.00794887 0.00774014 0.00752497 0.0073051 0.00708215 0.00685764 0.00663295 0.00640935 0.006188 0.00596989 0.00575595 0.00554695 0.00534359 0.00514643 0.00495598 0.00477265 0.00459678 0.00442864 0.00426844 0.00411636 0.00397251 0.00383697 0.0037098 0.00359103 0.00348067 0.00337869 0.00328508 0.00319981 0.00312284 0.00305412 0.00299361 0.00294127 0.00289706 0.00286094 0.00283288 0.00281286 0.00280085 0.00279685 