<?xml version="1.0"?>
<VTKFile type="StructuredGrid" version="0.1">
    <StructuredGrid WholeExtent="0 100 0 100 0 0">
        <Piece Extent="0 100 0 100 0 0">
            <Points>
                <DataArray type="Float64" NumberOfComponents="3" format="ascii">
-15 -15 0
-15 -14.7 0
-15 -14.4 0
-15 -14.1 0
-15 -13.8 0
-15 -13.5 0
-15 -13.2 0
-15 -12.9 0
-15 -12.6 0
-15 -12.3 0
-15 -12 0
-15 -11.7 0
-15 -11.4 0
-15 -11.1 0
-15 -10.8 0
-15 -10.5 0
-15 -10.2 0
-15 -9.9 0
-15 -9.6 0
-15 -9.3 0
-15 -9 0
-15 -8.7 0
-15 -8.4 0
-15 -8.1 0
-15 -7.8 0
-15 -7.5 0
-15 -7.2 0
-15 -6.9 0
-15 -6.6 0
-15 -6.3 0
-15 -6 0
-15 -5.7 0
-15 -5.4 0
-15 -5.1 0
-15 -4.8 0
-15 -4.5 0
-15 -4.2 0
-15 -3.9 0
-15 -3.6 0
-15 -3.3 0
-15 -3 0
-15 -2.7 0
-15 -2.4 0
-15 -2.1 0
-15 -1.8 0
-15 -1.5 0
-15 -1.2 0
-15 -0.9 0
-15 -0.6 0
-15 -0.3 0
-15 0 0
-15 0.3 0
-15 0.6 0
-15 0.9 0
-15 1.2 0
-15 1.5 0
-15 1.8 0
-15 2.1 0
-15 2.4 0
-15 2.7 0
-15 3 0
-15 3.3 0
-15 3.6 0
-15 3.9 0
-15 4.2 0
-15 4.5 0
-15 4.8 0
-15 5.1 0
-15 5.4 0
-15 5.7 0
-15 6 0
-15 6.3 0
-15 6.6 0
-15 6.9 0
-15 7.2 0
-15 7.5 0
-15 7.8 0
-15 8.1 0
-15 8.4 0
-15 8.7 0
-15 9 0
-15 9.3 0
-15 9.6 0
-15 9.9 0
-15 10.2 0
-15 10.5 0
-15 10.8 0
-15 11.1 0
-15 11.4 0
-15 11.7 0
-15 12 0
-15 12.3 0
-15 12.6 0
-15 12.9 0
-15 13.2 0
-15 13.5 0
-15 13.8 0
-15 14.1 0
-15 14.4 0
-15 14.7 0
-15 15 0
-14.7 -15 0
-14.7 -14.7 0
-14.7 -14.4 0
-14.7 -14.1 0
-14.7 -13.8 0
-14.7 -13.5 0
-14.7 -13.2 0
-14.7 -12.9 0
-14.7 -12.6 0
-14.7 -12.3 0
-14.7 -12 0
-14.7 -11.7 0
-14.7 -11.4 0
-14.7 -11.1 0
-14.7 -10.8 0
-14.7 -10.5 0
-14.7 -10.2 0
-14.7 -9.9 0
-14.7 -9.6 0
-14.7 -9.3 0
-14.7 -9 0
-14.7 -8.7 0
-14.7 -8.4 0
-14.7 -8.1 0
-14.7 -7.8 0
-14.7 -7.5 0
-14.7 -7.2 0
-14.7 -6.9 0
-14.7 -6.6 0
-14.7 -6.3 0
-14.7 -6 0
-14.7 -5.7 0
-14.7 -5.4 0
-14.7 -5.1 0
-14.7 -4.8 0
-14.7 -4.5 0
-14.7 -4.2 0
-14.7 -3.9 0
-14.7 -3.6 0
-14.7 -3.3 0
-14.7 -3 0
-14.7 -2.7 0
-14.7 -2.4 0
-14.7 -2.1 0
-14.7 -1.8 0
-14.7 -1.5 0
-14.7 -1.2 0
-14.7 -0.9 0
-14.7 -0.6 0
-14.7 -0.3 0
-14.7 0 0
-14.7 0.3 0
-14.7 0.6 0
-14.7 0.9 0
-14.7 1.2 0
-14.7 1.5 0
-14.7 1.8 0
-14.7 2.1 0
-14.7 2.4 0
-14.7 2.7 0
-14.7 3 0
-14.7 3.3 0
-14.7 3.6 0
-14.7 3.9 0
-14.7 4.2 0
-14.7 4.5 0
-14.7 4.8 0
-14.7 5.1 0
-14.7 5.4 0
-14.7 5.7 0
-14.7 6 0
-14.7 6.3 0
-14.7 6.6 0
-14.7 6.9 0
-14.7 7.2 0
-14.7 7.5 0
-14.7 7.8 0
-14.7 8.1 0
-14.7 8.4 0
-14.7 8.7 0
-14.7 9 0
-14.7 9.3 0
-14.7 9.6 0
-14.7 9.9 0
-14.7 10.2 0
-14.7 10.5 0
-14.7 10.8 0
-14.7 11.1 0
-14.7 11.4 0
-14.7 11.7 0
-14.7 12 0
-14.7 12.3 0
-14.7 12.6 0
-14.7 12.9 0
-14.7 13.2 0
-14.7 13.5 0
-14.7 13.8 0
-14.7 14.1 0
-14.7 14.4 0
-14.7 14.7 0
-14.7 15 0
-14.4 -15 0
-14.4 -14.7 0
-14.4 -14.4 0
-14.4 -14.1 0
-14.4 -13.8 0
-14.4 -13.5 0
-14.4 -13.2 0
-14.4 -12.9 0
-14.4 -12.6 0
-14.4 -12.3 0
-14.4 -12 0
-14.4 -11.7 0
-14.4 -11.4 0
-14.4 -11.1 0
-14.4 -10.8 0
-14.4 -10.5 0
-14.4 -10.2 0
-14.4 -9.9 0
-14.4 -9.6 0
-14.4 -9.3 0
-14.4 -9 0
-14.4 -8.7 0
-14.4 -8.4 0
-14.4 -8.1 0
-14.4 -7.8 0
-14.4 -7.5 0
-14.4 -7.2 0
-14.4 -6.9 0
-14.4 -6.6 0
-14.4 -6.3 0
-14.4 -6 0
-14.4 -5.7 0
-14.4 -5.4 0
-14.4 -5.1 0
-14.4 -4.8 0
-14.4 -4.5 0
-14.4 -4.2 0
-14.4 -3.9 0
-14.4 -3.6 0
-14.4 -3.3 0
-14.4 -3 0
-14.4 -2.7 0
-14.4 -2.4 0
-14.4 -2.1 0
-14.4 -1.8 0
-14.4 -1.5 0
-14.4 -1.2 0
-14.4 -0.9 0
-14.4 -0.6 0
-14.4 -0.3 0
-14.4 0 0
-14.4 0.3 0
-14.4 0.6 0
-14.4 0.9 0
-14.4 1.2 0
-14.4 1.5 0
-14.4 1.8 0
-14.4 2.1 0
-14.4 2.4 0
-14.4 2.7 0
-14.4 3 0
-14.4 3.3 0
-14.4 3.6 0
-14.4 3.9 0
-14.4 4.2 0
-14.4 4.5 0
-14.4 4.8 0
-14.4 5.1 0
-14.4 5.4 0
-14.4 5.7 0
-14.4 6 0
-14.4 6.3 0
-14.4 6.6 0
-14.4 6.9 0
-14.4 7.2 0
-14.4 7.5 0
-14.4 7.8 0
-14.4 8.1 0
-14.4 8.4 0
-14.4 8.7 0
-14.4 9 0
-14.4 9.3 0
-14.4 9.6 0
-14.4 9.9 0
-14.4 10.2 0
-14.4 10.5 0
-14.4 10.8 0
-14.4 11.1 0
-14.4 11.4 0
-14.4 11.7 0
-14.4 12 0
-14.4 12.3 0
-14.4 12.6 0
-14.4 12.9 0
-14.4 13.2 0
-14.4 13.5 0
-14.4 13.8 0
-14.4 14.1 0
-14.4 14.4 0
-14.4 14.7 0
-14.4 15 0
-14.1 -15 0
-14.1 -14.7 0
-14.1 -14.4 0
-14.1 -14.1 0
-14.1 -13.8 0
-14.1 -13.5 0
-14.1 -13.2 0
-14.1 -12.9 0
-14.1 -12.6 0
-14.1 -12.3 0
-14.1 -12 0
-14.1 -11.7 0
-14.1 -11.4 0
-14.1 -11.1 0
-14.1 -10.8 0
-14.1 -10.5 0
-14.1 -10.2 0
-14.1 -9.9 0
-14.1 -9.6 0
-14.1 -9.3 0
-14.1 -9 0
-14.1 -8.7 0
-14.1 -8.4 0
-14.1 -8.1 0
-14.1 -7.8 0
-14.1 -7.5 0
-14.1 -7.2 0
-14.1 -6.9 0
-14.1 -6.6 0
-14.1 -6.3 0
-14.1 -6 0
-14.1 -5.7 0
-14.1 -5.4 0
-14.1 -5.1 0
-14.1 -4.8 0
-14.1 -4.5 0
-14.1 -4.2 0
-14.1 -3.9 0
-14.1 -3.6 0
-14.1 -3.3 0
-14.1 -3 0
-14.1 -2.7 0
-14.1 -2.4 0
-14.1 -2.1 0
-14.1 -1.8 0
-14.1 -1.5 0
-14.1 -1.2 0
-14.1 -0.9 0
-14.1 -0.6 0
-14.1 -0.3 0
-14.1 0 0
-14.1 0.3 0
-14.1 0.6 0
-14.1 0.9 0
-14.1 1.2 0
-14.1 1.5 0
-14.1 1.8 0
-14.1 2.1 0
-14.1 2.4 0
-14.1 2.7 0
-14.1 3 0
-14.1 3.3 0
-14.1 3.6 0
-14.1 3.9 0
-14.1 4.2 0
-14.1 4.5 0
-14.1 4.8 0
-14.1 5.1 0
-14.1 5.4 0
-14.1 5.7 0
-14.1 6 0
-14.1 6.3 0
-14.1 6.6 0
-14.1 6.9 0
-14.1 7.2 0
-14.1 7.5 0
-14.1 7.8 0
-14.1 8.1 0
-14.1 8.4 0
-14.1 8.7 0
-14.1 9 0
-14.1 9.3 0
-14.1 9.6 0
-14.1 9.9 0
-14.1 10.2 0
-14.1 10.5 0
-14.1 10.8 0
-14.1 11.1 0
-14.1 11.4 0
-14.1 11.7 0
-14.1 12 0
-14.1 12.3 0
-14.1 12.6 0
-14.1 12.9 0
-14.1 13.2 0
-14.1 13.5 0
-14.1 13.8 0
-14.1 14.1 0
-14.1 14.4 0
-14.1 14.7 0
-14.1 15 0
-13.8 -15 0
-13.8 -14.7 0
-13.8 -14.4 0
-13.8 -14.1 0
-13.8 -13.8 0
-13.8 -13.5 0
-13.8 -13.2 0
-13.8 -12.9 0
-13.8 -12.6 0
-13.8 -12.3 0
-13.8 -12 0
-13.8 -11.7 0
-13.8 -11.4 0
-13.8 -11.1 0
-13.8 -10.8 0
-13.8 -10.5 0
-13.8 -10.2 0
-13.8 -9.9 0
-13.8 -9.6 0
-13.8 -9.3 0
-13.8 -9 0
-13.8 -8.7 0
-13.8 -8.4 0
-13.8 -8.1 0
-13.8 -7.8 0
-13.8 -7.5 0
-13.8 -7.2 0
-13.8 -6.9 0
-13.8 -6.6 0
-13.8 -6.3 0
-13.8 -6 0
-13.8 -5.7 0
-13.8 -5.4 0
-13.8 -5.1 0
-13.8 -4.8 0
-13.8 -4.5 0
-13.8 -4.2 0
-13.8 -3.9 0
-13.8 -3.6 0
-13.8 -3.3 0
-13.8 -3 0
-13.8 -2.7 0
-13.8 -2.4 0
-13.8 -2.1 0
-13.8 -1.8 0
-13.8 -1.5 0
-13.8 -1.2 0
-13.8 -0.9 0
-13.8 -0.6 0
-13.8 -0.3 0
-13.8 0 0
-13.8 0.3 0
-13.8 0.6 0
-13.8 0.9 0
-13.8 1.2 0
-13.8 1.5 0
-13.8 1.8 0
-13.8 2.1 0
-13.8 2.4 0
-13.8 2.7 0
-13.8 3 0
-13.8 3.3 0
-13.8 3.6 0
-13.8 3.9 0
-13.8 4.2 0
-13.8 4.5 0
-13.8 4.8 0
-13.8 5.1 0
-13.8 5.4 0
-13.8 5.7 0
-13.8 6 0
-13.8 6.3 0
-13.8 6.6 0
-13.8 6.9 0
-13.8 7.2 0
-13.8 7.5 0
-13.8 7.8 0
-13.8 8.1 0
-13.8 8.4 0
-13.8 8.7 0
-13.8 9 0
-13.8 9.3 0
-13.8 9.6 0
-13.8 9.9 0
-13.8 10.2 0
-13.8 10.5 0
-13.8 10.8 0
-13.8 11.1 0
-13.8 11.4 0
-13.8 11.7 0
-13.8 12 0
-13.8 12.3 0
-13.8 12.6 0
-13.8 12.9 0
-13.8 13.2 0
-13.8 13.5 0
-13.8 13.8 0
-13.8 14.1 0
-13.8 14.4 0
-13.8 14.7 0
-13.8 15 0
-13.5 -15 0
-13.5 -14.7 0
-13.5 -14.4 0
-13.5 -14.1 0
-13.5 -13.8 0
-13.5 -13.5 0
-13.5 -13.2 0
-13.5 -12.9 0
-13.5 -12.6 0
-13.5 -12.3 0
-13.5 -12 0
-13.5 -11.7 0
-13.5 -11.4 0
-13.5 -11.1 0
-13.5 -10.8 0
-13.5 -10.5 0
-13.5 -10.2 0
-13.5 -9.9 0
-13.5 -9.6 0
-13.5 -9.3 0
-13.5 -9 0
-13.5 -8.7 0
-13.5 -8.4 0
-13.5 -8.1 0
-13.5 -7.8 0
-13.5 -7.5 0
-13.5 -7.2 0
-13.5 -6.9 0
-13.5 -6.6 0
-13.5 -6.3 0
-13.5 -6 0
-13.5 -5.7 0
-13.5 -5.4 0
-13.5 -5.1 0
-13.5 -4.8 0
-13.5 -4.5 0
-13.5 -4.2 0
-13.5 -3.9 0
-13.5 -3.6 0
-13.5 -3.3 0
-13.5 -3 0
-13.5 -2.7 0
-13.5 -2.4 0
-13.5 -2.1 0
-13.5 -1.8 0
-13.5 -1.5 0
-13.5 -1.2 0
-13.5 -0.9 0
-13.5 -0.6 0
-13.5 -0.3 0
-13.5 0 0
-13.5 0.3 0
-13.5 0.6 0
-13.5 0.9 0
-13.5 1.2 0
-13.5 1.5 0
-13.5 1.8 0
-13.5 2.1 0
-13.5 2.4 0
-13.5 2.7 0
-13.5 3 0
-13.5 3.3 0
-13.5 3.6 0
-13.5 3.9 0
-13.5 4.2 0
-13.5 4.5 0
-13.5 4.8 0
-13.5 5.1 0
-13.5 5.4 0
-13.5 5.7 0
-13.5 6 0
-13.5 6.3 0
-13.5 6.6 0
-13.5 6.9 0
-13.5 7.2 0
-13.5 7.5 0
-13.5 7.8 0
-13.5 8.1 0
-13.5 8.4 0
-13.5 8.7 0
-13.5 9 0
-13.5 9.3 0
-13.5 9.6 0
-13.5 9.9 0
-13.5 10.2 0
-13.5 10.5 0
-13.5 10.8 0
-13.5 11.1 0
-13.5 11.4 0
-13.5 11.7 0
-13.5 12 0
-13.5 12.3 0
-13.5 12.6 0
-13.5 12.9 0
-13.5 13.2 0
-13.5 13.5 0
-13.5 13.8 0
-13.5 14.1 0
-13.5 14.4 0
-13.5 14.7 0
-13.5 15 0
-13.2 -15 0
-13.2 -14.7 0
-13.2 -14.4 0
-13.2 -14.1 0
-13.2 -13.8 0
-13.2 -13.5 0
-13.2 -13.2 0
-13.2 -12.9 0
-13.2 -12.6 0
-13.2 -12.3 0
-13.2 -12 0
-13.2 -11.7 0
-13.2 -11.4 0
-13.2 -11.1 0
-13.2 -10.8 0
-13.2 -10.5 0
-13.2 -10.2 0
-13.2 -9.9 0
-13.2 -9.6 0
-13.2 -9.3 0
-13.2 -9 0
-13.2 -8.7 0
-13.2 -8.4 0
-13.2 -8.1 0
-13.2 -7.8 0
-13.2 -7.5 0
-13.2 -7.2 0
-13.2 -6.9 0
-13.2 -6.6 0
-13.2 -6.3 0
-13.2 -6 0
-13.2 -5.7 0
-13.2 -5.4 0
-13.2 -5.1 0
-13.2 -4.8 0
-13.2 -4.5 0
-13.2 -4.2 0
-13.2 -3.9 0
-13.2 -3.6 0
-13.2 -3.3 0
-13.2 -3 0
-13.2 -2.7 0
-13.2 -2.4 0
-13.2 -2.1 0
-13.2 -1.8 0
-13.2 -1.5 0
-13.2 -1.2 0
-13.2 -0.9 0
-13.2 -0.6 0
-13.2 -0.3 0
-13.2 0 0
-13.2 0.3 0
-13.2 0.6 0
-13.2 0.9 0
-13.2 1.2 0
-13.2 1.5 0
-13.2 1.8 0
-13.2 2.1 0
-13.2 2.4 0
-13.2 2.7 0
-13.2 3 0
-13.2 3.3 0
-13.2 3.6 0
-13.2 3.9 0
-13.2 4.2 0
-13.2 4.5 0
-13.2 4.8 0
-13.2 5.1 0
-13.2 5.4 0
-13.2 5.7 0
-13.2 6 0
-13.2 6.3 0
-13.2 6.6 0
-13.2 6.9 0
-13.2 7.2 0
-13.2 7.5 0
-13.2 7.8 0
-13.2 8.1 0
-13.2 8.4 0
-13.2 8.7 0
-13.2 9 0
-13.2 9.3 0
-13.2 9.6 0
-13.2 9.9 0
-13.2 10.2 0
-13.2 10.5 0
-13.2 10.8 0
-13.2 11.1 0
-13.2 11.4 0
-13.2 11.7 0
-13.2 12 0
-13.2 12.3 0
-13.2 12.6 0
-13.2 12.9 0
-13.2 13.2 0
-13.2 13.5 0
-13.2 13.8 0
-13.2 14.1 0
-13.2 14.4 0
-13.2 14.7 0
-13.2 15 0
-12.9 -15 0
-12.9 -14.7 0
-12.9 -14.4 0
-12.9 -14.1 0
-12.9 -13.8 0
-12.9 -13.5 0
-12.9 -13.2 0
-12.9 -12.9 0
-12.9 -12.6 0
-12.9 -12.3 0
-12.9 -12 0
-12.9 -11.7 0
-12.9 -11.4 0
-12.9 -11.1 0
-12.9 -10.8 0
-12.9 -10.5 0
-12.9 -10.2 0
-12.9 -9.9 0
-12.9 -9.6 0
-12.9 -9.3 0
-12.9 -9 0
-12.9 -8.7 0
-12.9 -8.4 0
-12.9 -8.1 0
-12.9 -7.8 0
-12.9 -7.5 0
-12.9 -7.2 0
-12.9 -6.9 0
-12.9 -6.6 0
-12.9 -6.3 0
-12.9 -6 0
-12.9 -5.7 0
-12.9 -5.4 0
-12.9 -5.1 0
-12.9 -4.8 0
-12.9 -4.5 0
-12.9 -4.2 0
-12.9 -3.9 0
-12.9 -3.6 0
-12.9 -3.3 0
-12.9 -3 0
-12.9 -2.7 0
-12.9 -2.4 0
-12.9 -2.1 0
-12.9 -1.8 0
-12.9 -1.5 0
-12.9 -1.2 0
-12.9 -0.9 0
-12.9 -0.6 0
-12.9 -0.3 0
-12.9 0 0
-12.9 0.3 0
-12.9 0.6 0
-12.9 0.9 0
-12.9 1.2 0
-12.9 1.5 0
-12.9 1.8 0
-12.9 2.1 0
-12.9 2.4 0
-12.9 2.7 0
-12.9 3 0
-12.9 3.3 0
-12.9 3.6 0
-12.9 3.9 0
-12.9 4.2 0
-12.9 4.5 0
-12.9 4.8 0
-12.9 5.1 0
-12.9 5.4 0
-12.9 5.7 0
-12.9 6 0
-12.9 6.3 0
-12.9 6.6 0
-12.9 6.9 0
-12.9 7.2 0
-12.9 7.5 0
-12.9 7.8 0
-12.9 8.1 0
-12.9 8.4 0
-12.9 8.7 0
-12.9 9 0
[...]
            <PointData>
                <DataArray type="Float64" Name="c1" format="ascii">
0.00136423 0.00136564 0.00136985 0.00137687 0.00138669 0.00139931 0.00141471 0.00143289 0.00145383 0.00147751 0.00150391 0.001533 0.00156476 0.00159914 0.00163611 0.00167561 0.00171758 0.00176196 0.00180868 0.00185764 0.00190874 0.00196189 0.00201695 0.0020738 0.00213228 0.00219223 0.00225348 0.00231583 0.00237907 0.00244299 0.00250734 0.00257188 0.00263634 0.00270045 0.00276391 0.00282644 0.00288773 0.00294747 0.00300534 0.00306103 0.00311424 0.00316466 0.00321198 0.00325592 0.00329622 0.00333261 0.00336487 0.00339278 0.00341616 0.00343487 0.00344878 0.0034578 0.00346187 0.00346099 0.00345516 0.00344445 0.00342893 0.00340873 0.003384 0.00335492 0.00332171 0.00328461 0.00324386 0.00319976 0.00315258 0.00310265 0.00305027 0.00299577 0.00293947 0.00288169 0.00282276 0.00276299 0.00270269 0.00264217 0.0025817 0.00252158 0.00246205 0.00240337 0.00234578 0.00228949 0.00223471 0.00218162 0.0021304 0.00208121 0.00203418 0.00198946 0.00194716 0.00190739 0.00187024 0.00183579 0.00180412 0.00177529 0.00174936 0.00172638 0.00170638 0.00168941 0.00167549 0.00166463 0.00165687 0.00165221 0.00165065 
0.00136531 0.00136672 0.00137095 0.00137798 0.00138783 0.00140048 0.00141593 0.00143416 0.00145515 0.0014789 0.00150537 0.00153455 0.0015664 0.00160089 0.00163797 0.00167759 0.00171969 0.00176422 0.00181108 0.00186021 0.00191149 0.00196482 0.00202008 0.00207714 0.00213584 0.00219603 0.00225751 0.00232012 0.00238362 0.00244781 0.00251244 0.00257727 0.00264202 0.00270643 0.0027702 0.00283303 0.00289462 0.00295466 0.00301283 0.00306882 0.00312231 0.003173 0.00322058 0.00326477 0.00330529 0.00334189 0.00337433 0.0034024 0.00342592 0.00344473 0.00345872 0.00346779 0.00347189 0.003471 0.00346513 0.00345434 0.00343873 0.0034184 0.00339352 0.00336427 0.00333086 0.00329353 0.00325255 0.00320819 0.00316075 0.00311053 0.00305786 0.00300306 0.00294646 0.00288838 0.00282914 0.00276907 0.00270847 0.00264765 0.0025869 0.00252649 0.00246669 0.00240775 0.00234991 0.00229338 0.00223836 0.00218506 0.00213363 0.00208424 0.00203704 0.00199215 0.00194969 0.00190977 0.00187248 0.00183791 0.00180613 0.00177721 0.00175119 0.00172813 0.00170807 0.00169104 0.00167707 0.00166618 0.00165839 0.00165371 0.00165215 
0.00136855 0.00136997 0.00137423 0.00138132 0.00139125 0.001404 0.00141957 0.00143795 0.00145912 0.00148306 0.00150976 0.00153919 0.00157132 0.00160612 0.00164353 0.00168352 0.00172602 0.00177098 0.0018183 0.00186792 0.00191973 0.00197363 0.00202948 0.00208717 0.00214654 0.00220742 0.00226963 0.002333 0.00239729 0.0024623 0.00252777 0.00259346 0.0026591 0.00272441 0.00278908 0.00285283 0.00291534 0.00297628 0.00303535 0.00309222 0.00314656 0.00319807 0.00324643 0.00329136 0.00333256 0.00336978 0.00340278 0.00343133 0.00345526 0.0034744 0.00348863 0.00349785 0.00350201 0.00350109 0.00349511 0.00348411 0.0034682 0.00344749 0.00342215 0.00339237 0.00335836 0.00332037 0.00327867 0.00323353 0.00318528 0.00313422 0.00308068 0.00302498 0.00296747 0.00290847 0.00284831 0.00278733 0.00272583 0.00266412 0.0026025 0.00254125 0.00248063 0.0024209 0.0023623 0.00230504 0.00224933 0.00219537 0.00214332 0.00209335 0.0020456 0.0020002 0.00195727 0.00191691 0.00187922 0.00184429 0.00181218 0.00178295 0.00175667 0.00173338 0.00171312 0.00169592 0.00168181 0.00167082 0.00166296 0.00165823 0.00165666 
0.00137394 0.00137538 0.00137969 0.00138688 0.00139694 0.00140986 0.00142564 0.00144427 0.00146572 0.00149 0.00151708 0.00154693 0.00157952 0.00161483 0.0016528 0.0016934 0.00173657 0.00178224 0.00183034 0.00188078 0.00193347 0.00198831 0.00204516 0.0021039 0.00216438 0.00222642 0.00228986 0.0023545 0.00242012 0.00248649 0.00255338 0.00262052 0.00268764 0.00275445 0.00282065 0.00288594 0.00294998 0.00301245 0.00307302 0.00313137 0.00318715 0.00324003 0.00328971 0.00333587 0.00337822 0.00341649 0.00345042 0.0034798 0.00350441 0.0035241 0.00353873 0.00354821 0.00355247 0.0035515 0.00354532 0.00353398 0.00351757 0.00349623 0.00347012 0.00343943 0.00340441 0.0033653 0.00332239 0.00327596 0.00322634 0.00317386 0.00311884 0.00306164 0.0030026 0.00294206 0.00288037 0.00281785 0.00275484 0.00269165 0.00262857 0.0025659 0.00250391 0.00244285 0.00238298 0.0023245 0.00226764 0.00221257 0.00215949 0.00210854 0.00205987 0.00201362 0.0019699 0.00192881 0.00189045 0.00185491 0.00182224 0.00179252 0.0017658 0.00174212 0.00172153 0.00170405 0.00168971 0.00167854 0.00167055 0.00166576 0.00166416 
0.00138147 0.00138293 0.00138732 0.00139464 0.00140488 0.00141804 0.00143412 0.00145309 0.00147495 0.0014997 0.0015273 0.00155774 0.00159098 0.00162701 0.00166577 0.00170723 0.00175133 0.00179801 0.00184719 0.00189879 0.00195272 0.00200888 0.00206713 0.00212735 0.00218939 0.00225308 0.00231824 0.00238467 0.00245215 0.00252046 0.00258934 0.00265853 0.00272774 0.00279668 0.00286504 0.0029325 0.00299871 0.00306334 0.00312605 0.00318649 0.0032443 0.00329915 0.00335069 0.00339861 0.00344259 0.00348235 0.00351761 0.00354814 0.00357373 0.0035942 0.0036094 0.00361925 0.00362366 0.00362263 0.00361616 0.00360432 0.00358721 0.00356496 0.00353775 0.0035058 0.00346934 0.00342865 0.00338401 0.00333574 0.00328419 0.00322968 0.00317258 0.00311325 0.00305205 0.00298933 0.00292546 0.00286077 0.00279562 0.00273032 0.00266519 0.00260051 0.00253658 0.00247366 0.00241199 0.0023518 0.0022933 0.00223669 0.00218215 0.00212982 0.00207987 0.00203242 0.00198758 0.00194547 0.00190617 0.00186976 0.00183632 0.0018059 0.00177856 0.00175434 0.00173328 0.00171541 0.00170075 0.00168934 0.00168117 0.00167627 0.00167463 
0.00139111 0.00139261 0.0013971 0.00140459 0.00141507 0.00142853 0.00144498 0.0014644 0.00148679 0.00151213 0.00154041 0.00157161 0.0016057 0.00164265 0.00168243 0.001725 0.0017703 0.00181827 0.00186885 0.00192195 0.00197749 0.00203535 0.00209542 0.00215756 0.00222162 0.00228744 0.00235482 0.00242358 0.00249349 0.00256431 0.00263578 0.00270763 0.00277956 0.00285128 0.00292244 0.00299273 0.00306177 0.00312923 0.00319473 0.0032579 0.00331837 0.00337578 0.00342976 0.00347998 0.0035261 0.00356781 0.00360482 0.00363687 0.00366374 0.00368523 0.0037012 0.00371152 0.00371613 0.00371501 0.00370817 0.00369568 0.00367765 0.00365421 0.00362557 0.00359195 0.00355361 0.00351083 0.00346394 0.00341327 0.00335917 0.00330202 0.0032422 0.00318008 0.00311605 0.00305049 0.00298378 0.00291627 0.00284833 0.00278029 0.00271248 0.0026452 0.00257875 0.0025134 0.0024494 0.00238699 0.00232638 0.00226776 0.00221132 0.00215722 0.0021056 0.0020566 0.00201032 0.00196688 0.00192636 0.00188884 0.0018544 0.00182308 0.00179493 0.00177001 0.00174835 0.00172998 0.00171491 0.00170317 0.00169478 0.00168974 0.00168806 
0.00140285 0.00140439 0.001409 0.0014167 0.00142746 0.0014413 0.00145821 0.00147819 0.00150121 0.00152729 0.0015564 0.00158852 0.00162364 0.00166173 0.00170276 0.00174669 0.00179346 0.00184303 0.00189533 0.00195028 0.00200778 0.00206774 0.00213004 0.00219455 0.00226111 0.00232955 0.00239969 0.00247132 0.00254422 0.00261815 0.00269282 0.00276797 0.00284329 0.00291844 0.0029931 0.0030669 0.00313948 0.00321045 0.00327942 0.003346 0.00340979 0.0034704 0.00352744 0.00358054 0.00362933 0.00367348 0.00371268 0.00374664 0.00377512 0.00379789 0.00381481 0.00382574 0.0038306 0.00382938 0.00382207 0.00380877 0.00378957 0.00376466 0.00373422 0.0036985 0.0036578 0.00361242 0.00356271 0.00350903 0.00345176 0.00339132 0.00332809 0.0032625 0.00319495 0.00312585 0.0030556 0.00298458 0.00291317 0.00284173 0.0027706 0.00270009 0.00263053 0.00256217 0.00249529 0.00243013 0.0023669 0.00230581 0.00224703 0.00219074 0.00213707 0.00208615 0.00203811 0.00199303 0.00195102 0.00191214 0.00187645 0.00184403 0.00181491 0.00178913 0.00176673 0.00174773 0.00173216 0.00172003 0.00171136 0.00170615 0.00170441 
0.00141665 0.00141824 0.001423 0.00143093 0.00144204 0.00145633 0.00147378 0.00149441 0.00151819 0.00154514 0.00157523 0.00160845 0.0016448 0.00168424 0.00172674 0.00177228 0.00182081 0.00187228 0.00192662 0.00198376 0.00204361 0.00210608 0.00217104 0.00223837 0.0023079 0.00237948 0.00245292 0.002528 0.00260449 0.00268213 0.00276066 0.00283977 0.00291915 0.00299845 0.00307731 0.00315536 0.00323219 0.00330741 0.00338058 0.00345129 0.00351911 0.0035836 0.00364435 0.00370094 0.00375299 0.00380011 0.00384198 0.00387826 0.00390869 0.00393304 0.00395112 0.00396279 0.00396796 0.00396661 0.00395874 0.00394445 0.00392385 0.00389712 0.00386449 0.00382624 0.00378266 0.00373412 0.00368098 0.00362364 0.00356254 0.00349809 0.00343074 0.00336094 0.00328914 0.00321576 0.00314123 0.00306598 0.00299039 0.00291486 0.00283973 0.00276535 0.00269204 0.00262008 0.00254975 0.00248129 0.00241494 0.00235088 0.00228932 0.00223041 0.00217429 0.0021211 0.00207094 0.00202392 0.00198013 0.00193962 0.00190247 0.00186873 0.00183844 0.00181164 0.00178837 0.00176863 0.00175246 0.00173987 0.00173087 0.00172546 0.00172366 
0.00143247 0.00143412 0.00143905 0.00144727 0.00145877 0.00147357 0.00149165 0.00151303 0.00153769 0.00156564 0.00159687 0.00163137 0.00166913 0.00171013 0.00175436 0.00180177 0.00185233 0.001906 0.00196271 0.0020224 0.00208499 0.00215037 0.00221844 0.00228906 0.00236207 0.00243732 0.00251461 0.00259372 0.00267441 0.00275643 0.00283948 0.00292326 0.00300742 0.0030916 0.00317543 0.00325849 0.00334036 0.0034206 0.00349876 0.00357437 0.00364696 0.00371607 0.00378123 0.00384199 0.00389792 0.0039486 0.00399364 0.00403271 0.00406548 0.00409171 0.00411119 0.00412374 0.00412929 0.00412779 0.00411925 0.00410377 0.00408149 0.00405261 0.00401737 0.00397608 0.00392908 0.00387676 0.00381954 0.00375785 0.00369217 0.00362297 0.00355073 0.00347594 0.00339909 0.00332064 0.00324106 0.00316081 0.0030803 0.00299993 0.0029201 0.00284116 0.00276345 0.00268726 0.00261288 0.00254057 0.00247055 0.00240304 0.00233821 0.00227624 0.00221727 0.00216142 0.00210881 0.00205953 0.00201366 0.00197127 0.00193242 0.00189715 0.00186551 0.00183753 0.00181323 0.00179264 0.00177578 0.00176265 0.00175326 0.00174763 0.00174575 
0.00145029 0.00145199 0.00145711 0.00146565 0.00147761 0.00149298 0.00151179 0.00153402 0.00155967 0.00158877 0.00162129 0.00165724 0.00169661 0.00173939 0.00178557 0.00183511 0.00188799 0.00194418 0.0020036 0.00206621 0.00213192 0.00220064 0.00227227 0.00234666 0.00242368 0.00250314 0.00258486 0.00266862 0.00275417 0.00284124 0.00292952 0.00301869 0.0031084 0.00319825 0.00328784 0.00337674 0.00346448 0.00355059 0.00363456 0.00371591 0.0037941 0.00386862 0.00393897 0.00400463 0.00406512 0.00411998 0.00416878 0.00421112 0.00424667 0.00427513 0.00429625 0.00430986 0.00431585 0.00431418 0.00430486 0.00428799 0.00426373 0.0042323 0.00419398 0.00414911 0.00409809 0.00404133 0.00397931 0.00391251 0.00384146 0.00376668 0.00368872 0.00360809 0.00352534 0.00344098 0.00335552 0.00326944 0.0031832 0.00309724 0.00301195 0.00292773 0.00284492 0.00276385 0.0026848 0.00260804 0.00253381 0.00246231 0.00239375 0.00232827 0.00226602 0.00220713 0.00215171 0.00209984 0.0020516 0.00200706 0.00196626 0.00192925 0.00189607 0.00186674 0.00184128 0.00181972 0.00180206 0.00178832 0.0017785 0.0017726 0.00177064 
0.00147003 0.00147181 0.00147715 0.00148604 0.0014985 0.00151453 0.00153413 0.00155731 0.00158409 0.00161446 0.00164843 0.00168601 0.00172719 0.00177197 0.00182034 0.00187228 0.00192778 0.00198679 0.00204927 0.00211517 0.00218441 0.00225691 0.00233256 0.00241123 0.00249278 0.00257703 0.00266379 0.00275284 0.00284392 0.00293675 0.00303101 0.00312636 0.00322242 0.00331878 0.00341501 0.00351062 0.00360513 0.00369801 0.00378872 0.0038767 0.00396138 0.00404219 0.00411856 0.00418992 0.00425573 0.00431547 0.00436866 0.00441484 0.00445363 0.00448469 0.00450775 0.00452261 0.00452912 0.00452726 0.00451702 0.00449853 0.00447196 0.00443756 0.00439565 0.00434661 0.00429089 0.00422896 0.00416135 0.00408861 0.00401132 0.00393007 0.00384546 0.00375809 0.00366852 0.00357734 0.00348509 0.00339231 0.00329948 0.00320709 0.00311555 0.00302529 0.00293666 0.00285 0.00276563 0.00268381 0.00260478 0.00252877 0.00245595 0.00238649 0.00232054 0.00225822 0.00219961 0.00214482 0.00209391 0.00204693 0.00200394 0.00196498 0.00193006 0.00189921 0.00187245 0.0018498 0.00183125 0.00181682 0.00180651 0.00180032 0.00179826 
0.00149166 0.00149352 0.00149909 0.00150838 0.00152139 0.00153814 0.00155863 0.00158287 0.00161088 0.00164267 0.00167825 0.00171763 0.00176082 0.00180781 0.00185862 0.00191324 0.00197164 0.0020338 0.00209969 0.00216926 0.00224245 0.00231917 0.00239933 0.0024828 0.00256944 0.00265907 0.00275151 0.00284652 0.00294385 0.00304319 0.00314422 0.00324658 0.00334986 0.00345363 0.00355741 0.00366069 0.00376293 0.00386357 0.003962 0.00405761 0.00414976 0.00423782 0.00432114 0.0043991 0.00447107 0.00453647 0.00459474 0.00464538 0.00468795 0.00472205 0.00474737 0.00476367 0.00477081 0.00476873 0.00475744 0.00473707 0.00470782 0.00466997 0.0046239 0.00457003 0.00450885 0.00444094 0.00436686 0.00428726 0.00420278 0.00411408 0.00402183 0.00392669 0.00382931 0.00373031 0.00363031 0.00352987 0.00342954 0.00332983 0.00323119 0.00313407 0.00303884 0.00294588 0.00285549 0.00276796 0.00268354 0.00260244 0.00252485 0.00245093 0.00238083 0.00231465 0.0022525 0.00219444 0.00214054 0.00209086 0.00204543 0.00200427 0.00196742 0.00193489 0.00190668 0.00188281 0.00186328 0.00184808 0.00183723 0.00183072 0.00182855 
0.0015151 0.00151705 0.00152288 0.0015326 0.00154622 0.00156376 0.00158522 0.00161062 0.00163999 0.00167333 0.00171068 0.00175204 0.00179743 0.00184687 0.00190037 0.00195792 0.00201953 0.00208518 0.00215484 0.00222847 0.00230603 0.00238744 0.0024726 0.0025614 0.00265371 0.00274935 0.00284813 0.00294981 0.00305413 0.00316078 0.00326943 0.00337968 0.0034911 0.00360324 0.00371557 0.00382755 0.00393859 0.00404806 0.0041553 0.00425962 0.00436032 0.00445669 0.004548 0.00463354 0.0047126 0.00478453 0.00484868 0.00490449 0.00495142 0.00498905 0.00501699 0.00503499 0.00504286 0.00504054 0.00502804 0.0050055 0.00497316 0.00493133 0.00488044 0.00482099 0.00475354 0.00467873 0.00459722 0.00450973 0.00441699 0.00431975 0.00421876 0.00411476 0.00400846 0.00390057 0.00379176 0.00368264 0.00357381 0.00346582 0.00335917 0.00325432 0.00315169 0.00305165 0.00295452 0.0028606 0.00277015 0.00268337 0.00260047 0.00252159 0.00244687 0.00237642 0.00231032 0.00224864 0.00219145 0.00213877 0.00209064 0.00204708 0.0020081 0.00197371 0.0019439 0.00191869 0.00189807 0.00188204 0.00187059 0.00186372 0.00186143 
0.0015403 0.00154233 0.00154844 0.00155864 0.00157292 0.00159131 0.00161383 0.0016405 0.00167134 0.00170638 0.00174565 0.00178917 0.00183697 0.00188908 0.00194551 0.00200628 0.0020714 0.00214086 0.00221466 0.00229276 0.00237512 0.00246169 0.00255237 0.00264707 0.00274565 0.00284794 0.00295375 0.00306285 0.00317496 0.00328977 0.00340692 0.003526 0.00364656 0.0037681 0.00389007 0.00401187 0.00413285 0.00425233 0.00436956 0.0044838 0.00459425 0.00470011 0.00480055 0.00489478 0.004982 0.00506143 0.00513236 0.00519412 0.0052461 0.0052878 0.0053188 0.00533876 0.00534749 0.0053449 0.00533101 0.00530598 0.00527007 0.00522367 0.00516724 0.00510137 0.00502671 0.00494397 0.00485394 0.00475741 0.00465523 0.00454825 0.0044373 0.00432322 0.00420681 0.00408884 0.00397005 0.00385114 0.00373275 0.00361546 0.00349982 0.00338632 0.00327541 0.00316746 0.00306283 0.00296181 0.00286466 0.00277159 0.00268281 0.00259844 0.00251863 0.00244347 0.00237303 0.00230738 0.00224656 0.0021906 0.00213951 0.00209331 0.002052 0.00201557 0.00198402 0.00195735 0.00193554 0.00191859 0.00190649 0.00189923 0.00189681 
0.00156716 0.0015693 0.00157571 0.00158641 0.00160141 0.00162073 0.00164439 0.00167242 0.00170485 0.00174173 0.00178308 0.00182894 0.00187935 0.00193435 0.00199397 0.00205824 0.00212717 0.00220079 0.0022791 0.00236207 0.00244969 0.0025419 0.00263864 0.00273981 0.00284528 0.0029549 0.00306848 0.00318577 0.00330651 0.00343037 0.00355697 0.0036859 0.00381667 0.00394873 0.00408151 0.00421434 0.00434652 0.00447729 0.00460584 0.00473132 0.00485285 0.00496951 0.00508039 0.00518455 0.0052811 0.00536915 0.00544787 0.00551648 0.00557429 0.0056207 0.00565522 0.00567747 0.00568721 0.00568432 0.00566885 0.00564096 0.00560096 0.00554928 0.0054865 0.00541325 0.00533031 0.0052385 0.00513871 0.00503187 0.00491893 0.00480085 0.00467859 0.00455308 0.00442522 0.00429588 0.00416587 0.00403595 0.00390682 0.00377913 0.00365345 0.00353032 0.00341019 0.00329347 0.00318052 0.00307165 0.00296711 0.00286712 0.00277186 0.00268147 0.00259607 0.00251575 0.00244057 0.00237058 0.0023058 0.00224626 0.00219195 0.00214287 0.00209903 0.00206039 0.00202695 0.00199869 0.00197559 0.00195764 0.00194483 0.00193715 0.00193459 
0.00159561 0.00159786 0.00160459 0.00161584 0.0016316 0.00165191 0.0016768 0.0017063 0.00174044 0.00177929 0.00182287 0.00187125 0.00192448 0.00198259 0.00204565 0.0021137 0.00218677 0.00226489 0.00234808 0.00243634 0.00252967 0.00262804 0.00273138 0.00283961 0.00295263 0.00307028 0.00319238 0.00331869 0.00344894 0.0035828 0.00371988 0.00385973 0.00400185 0.00414565 0.0042905 0.0044357 0.00458046 0.00472394 0.00486526 0.00500345 0.00513754 0.00526648 0.00538923 0.00550474 0.00561197 0.0057099 0.00579756 0.00587406 0.00593859 0.00599044 0.00602904 0.00605394 0.00606485 0.00606165 0.00604436 0.00601319 0.00596849 0.00591077 0.00584067 0.00575897 0.00566655 0.00556435 0.00545342 0.00533481 0.00520962 0.00507894 0.00494386 0.00480543 0.00466466 0.00452252 0.0043799 0.00423765 0.00409653 0.00395724 0.0038204 0.00368656 0.00355623 0.00342983 0.00330771 0.00319019 0.00307753 0.00296995 0.0028676 0.00277063 0.00267914 0.0025932 0.00251285 0.00243814 0.00236907 0.00230564 0.00224785 0.00219567 0.00214908 0.00210806 0.00207257 0.0020426 0.00201811 0.00199909 0.00198552 0.00197738 0.00197467 
0.00162556 0.00162792 0.001635 0.00164683 0.00166341 0.00168478 0.00171097 0.00174203 0.00177801 0.00181896 0.00186494 0.00191601 0.00197225 0.00203371 0.00210046 0.00217257 0.00225008 0.00233305 0.00242151 0.00251549 0.002615 0.00272002 0.00283053 0.00294645 0.00306768 0.00319409 0.00332551 0.00346171 0.00360241 0.00374727 0.0038959 0.00404784 0.00420253 0.00435938 0.00451769 0.00467669 0.00483554 0.00499331 0.005149 0.00530156 0.00544985 0.00559273 0.005729 0.00585745 0.00597688 0.00608612 0.00618406 0.00626963 0.0063419 0.00640004 0.00644336 0.00647134 0.00648364 0.00648009 0.00646074 0.0064258 0.0063757 0.00631103 0.00623255 0.00614115 0.00603786 0.00592379 0.00580012 0.00566811 0.00552899 0.00538402 0.00523443 0.00508142 0.00492612 0.0047696 0.00461287 0.00445684 0.00430236 0.00415017 0.00400096 0.0038553 0.00371371 0.00357664 0.00344445 0.00331746 0.00319593 0.00308005 0.00296998 0.00286585 0.00276774 0.00267571 0.00258978 0.00250996 0.00243626 0.00236864 0.00230709 0.00225157 0.00220203 0.00215845 0.00212077 0.00208896 0.00206298 0.00204281 0.00202843 0.0020198 0.00201693 
0.0016569 0.00165938 0.00166683 0.00167927 0.00169672 0.00171921 0.00174679 0.00177952 0.00181744 0.00186063 0.00190915 0.0019631 0.00202255 0.00208758 0.00215827 0.00223471 0.00231698 0.00240515 0.00249927 0.0025994 0.00270556 0.00281778 0.00293602 0.00306025 0.0031904 0.00332634 0.00346791 0.0036149 0.00376703 0.00392396 0.0040853 0.00425055 0.00441915 0.00459046 0.00476372 0.00493812 0.00511271 0.00528649 0.00545835 0.00562709 0.00579146 0.00595014 0.00610178 0.00624498 0.00637836 0.00650056 0.00661029 0.00670631 0.0067875 0.0068529 0.0069017 0.00693326 0.00694719 0.00694327 0.00692155 0.0068823 0.006826 0.00675334 0.00666522 0.00656269 0.00644695 0.00631929 0.00618111 0.00603382 0.00587888 0.00571771 0.00555173 0.00538228 0.00521064 0.00503802 0.00486551 0.00469413 0.0045248 0.00435833 0.00419543 0.00403673 0.00388277 0.00373399 0.00359079 0.00345346 0.00332225 0.00319736 0.00307892 0.00296704 0.00286178 0.00276317 0.00267122 0.00258591 0.00250723 0.00243512 0.00236954 0.00231044 0.00225775 0.00221143 0.0021714 0.00213763 0.00211007 0.00208867 0.00207341 0.00206427 0.00206122 