<?xml version="1.0"?>
<VTKFile type="StructuredGrid" version="0.1">
    <StructuredGrid WholeExtent="0 100 0 100 0 0">
        <Piece Extent="0 100 0 100 0 0">
            <Points>
                <DataArray type="Float64" NumberOfComponents="3" format="ascii">
-15 -15 0
-15 -14.7 0
-15 -14.4 0
-15 -14.1 0
-15 -13.8 0
-15 -13.5 0
-15 -13.2 0
-15 -12.9 0
-15 -12.6 0
-15 -12.3 0
-15 -12 0
-15 -11.7 0
-15 -11.4 0
-15 -11.1 0
-15 -10.8 0
-15 -10.5 0
-15 -10.2 0
-15 -9.9 0
-15 -9.6 0
-15 -9.3 0
-15 -9 0
-15 -8.7 0
-15 -8.4 0
-15 -8.1 0
-15 -7.8 0
-15 -7.5 0
-15 -7.2 0
-15 -6.9 0
-15 -6.6 0
-15 -6.3 0
-15 -6 0
-15 -5.7 0
-15 -5.4 0
-15 -5.1 0
-15 -4.8 0
-15 -4.5 0
-15 -4.2 0
-15 -3.9 0
-15 -3.6 0
-15 -3.3 0
-15 -3 0
-15 -2.7 0
-15 -2.4 0
-15 -2.1 0
-15 -1.8 0
-15 -1.5 0
-15 -1.2 0
-15 -0.9 0
-15 -0.6 0
-15 -0.3 0
-15 0 0
-15 0.3 0
-15 0.6 0
-15 0.9 0
-15 1.2 0
-15 1.5 0
-15 1.8 0
-15 2.1 0
-15 2.4 0
-15 2.7 0
-15 3 0
-15 3.3 0
-15 3.6 0
-15 3.9 0
-15 4.2 0
-15 4.5 0
-15 4.8 0
-15 5.1 0
-15 5.4 0
-15 5.7 0
-15 6 0
-15 6.3 0
-15 6.6 0
-15 6.9 0
-15 7.2 0
-15 7.5 0
-15 7.8 0
-15 8.1 0
-15 8.4 0
-15 8.7 0
-15 9 0
-15 9.3 0
-15 9.6 0
-15 9.9 0
-15 10.2 0
-15 10.5 0
-15 10.8 0
-15 11.1 0
-15 11.4 0
-15 11.7 0
-15 12 0
-15 12.3 0
-15 12.6 0
-15 12.9 0
-15 13.2 0
-15 13.5 0
-15 13.8 0
-15 14.1 0
-15 14.4 0
-15 14.7 0
-15 15 0
-14.7 -15 0
-14.7 -14.7 0
-14.7 -14.4 0
-14.7 -14.1 0
-14.7 -13.8 0
-14.7 -13.5 0
-14.7 -13.2 0
-14.7 -12.9 0
-14.7 -12.6 0
-14.7 -12.3 0
-14.7 -12 0
-14.7 -11.7 0
-14.7 -11.4 0
-14.7 -11.1 0
-14.7 -10.8 0
-14.7 -10.5 0
-14.7 -10.2 0
-14.7 -9.9 0
-14.7 -9.6 0
-14.7 -9.3 0
-14.7 -9 0
-14.7 -8.7 0
-14.7 -8.4 0
-14.7 -8.1 0
-14.7 -7.8 0
-14.7 -7.5 0
-14.7 -7.2 0
-14.7 -6.9 0
-14.7 -6.6 0
-14.7 -6.3 0
-14.7 -6 0
-14.7 -5.7 0
-14.7 -5.4 0
-14.7 -5.1 0
-14.7 -4.8 0
-14.7 -4.5 0
-14.7 -4.2 0
-14.7 -3.9 0
-14.7 -3.6 0
-14.7 -3.3 0
-14.7 -3 0
-14.7 -2.7 0
-14.7 -2.4 0
-14.7 -2.1 0
-14.7 -1.8 0
-14.7 -1.5 0
-14.7 -1.2 0
-14.7 -0.9 0
-14.7 -0.6 0
-14.7 -0.3 0
-14.7 0 0
-14.7 0.3 0
-14.7 0.6 0
-14.7 0.9 0
-14.7 1.2 0
-14.7 1.5 0
-14.7 1.8 0
-14.7 2.1 0
-14.7 2.4 0
-14.7 2.7 0
-14.7 3 0
-14.7 3.3 0
-14.7 3.6 0
-14.7 3.9 0
-14.7 4.2 0
-14.7 4.5 0
-14.7 4.8 0
-14.7 5.1 0
-14.7 5.4 0
-14.7 5.7 0
-14.7 6 0
-14.7 6.3 0
-14.7 6.6 0
-14.7 6.9 0
-14.7 7.2 0
-14.7 7.5 0
-14.7 7.8 0
-14.7 8.1 0
-14.7 8.4 0
-14.7 8.7 0
-14.7 9 0
-14.7 9.3 0
-14.7 9.6 0
-14.7 9.9 0
-14.7 10.2 0
-14.7 10.5 0
-14.7 10.8 0
-14.7 11.1 0
-14.7 11.4 0
-14.7 11.7 0
-14.7 12 0
-14.7 12.3 0
-14.7 12.6 0
-14.7 12.9 0
-14.7 13.2 0
-14.7 13.5 0
-14.7 13.8 0
-14.7 14.1 0
-14.7 14.4 0
-14.7 14.7 0
-14.7 15 0
-14.4 -15 0
-14.4 -14.7 0
-14.4 -14.4 0
-14.4 -14.1 0
-14.4 -13.8 0
-14.4 -13.5 0
-14.4 -13.2 0
-14.4 -12.9 0
-14.4 -12.6 0
-14.4 -12.3 0
-14.4 -12 0
-14.4 -11.7 0
-14.4 -11.4 0
-14.4 -11.1 0
-14.4 -10.8 0
-14.4 -10.5 0
-14.4 -10.2 0
-14.4 -9.9 0
-14.4 -9.6 0
-14.4 -9.3 0
-14.4 -9 0
-14.4 -8.7 0
-14.4 -8.4 0
-14.4 -8.1 0
-14.4 -7.8 0
-14.4 -7.5 0
-14.4 -7.2 0
-14.4 -6.9 0
-14.4 -6.6 0
-14.4 -6.3 0
-14.4 -6 0
-14.4 -5.7 0
-14.4 -5.4 0
-14.4 -5.1 0
-14.4 -4.8 0
-14.4 -4.5 0
-14.4 -4.2 0
-14.4 -3.9 0
-14.4 -3.6 0
-14.4 -3.3 0
-14.4 -3 0
-14.4 -2.7 0
-14.4 -2.4 0
-14.4 -2.1 0
-14.4 -1.8 0
-14.4 -1.5 0
-14.4 -1.2 0
-14.4 -0.9 0
-14.4 -0.6 0
-14.4 -0.3 0
-14.4 0 0
-14.4 0.3 0
-14.4 0.6 0
-14.4 0.9 0
-14.4 1.2 0
-14.4 1.5 0
-14.4 1.8 0
-14.4 2.1 0
-14.4 2.4 0
-14.4 2.7 0
-14.4 3 0
-14.4 3.3 0
-14.4 3.6 0
-14.4 3.9 0
-14.4 4.2 0
-14.4 4.5 0
-14.4 4.8 0
-14.4 5.1 0
-14.4 5.4 0
-14.4 5.7 0
-14.4 6 0
-14.4 6.3 0
-14.4 6.6 0
-14.4 6.9 0
-14.4 7.2 0
-14.4 7.5 0
-14.4 7.8 0
-14.4 8.1 0
-14.4 8.4 0
-14.4 8.7 0
-14.4 9 0
-14.4 9.3 0
-14.4 9.6 0
-14.4 9.9 0
-14.4 10.2 0
-14.4 10.5 0
-14.4 10.8 0
-14.4 11.1 0
-14.4 11.4 0
-14.4 11.7 0
-14.4 12 0
-14.4 12.3 0
-14.4 12.6 0
-14.4 12.9 0
-14.4 13.2 0
-14.4 13.5 0
-14.4 13.8 0
-14.4 14.1 0
-14.4 14.4 0
-14.4 14.7 0
-14.4 15 0
-14.1 -15 0
-14.1 -14.7 0
-14.1 -14.4 0
-14.1 -14.1 0
-14.1 -13.8 0
-14.1 -13.5 0
-14.1 -13.2 0
-14.1 -12.9 0
-14.1 -12.6 0
-14.1 -12.3 0
-14.1 -12 0
-14.1 -11.7 0
-14.1 -11.4 0
-14.1 -11.1 0
-14.1 -10.8 0
-14.1 -10.5 0
-14.1 -10.2 0
-14.1 -9.9 0
-14.1 -9.6 0
-14.1 -9.3 0
-14.1 -9 0
-14.1 -8.7 0
-14.1 -8.4 0
-14.1 -8.1 0
-14.1 -7.8 0
-14.1 -7.5 0
-14.1 -7.2 0
-14.1 -6.9 0
-14.1 -6.6 0
-14.1 -6.3 0
-14.1 -6 0
-14.1 -5.7 0
-14.1 -5.4 0
-14.1 -5.1 0
-14.1 -4.8 0
-14.1 -4.5 0
-14.1 -4.2 0
-14.1 -3.9 0
-14.1 -3.6 0
-14.1 -3.3 0
-14.1 -3 0
-14.1 -2.7 0
-14.1 -2.4 0
-14.1 -2.1 0
-14.1 -1.8 0
-14.1 -1.5 0
-14.1 -1.2 0
-14.1 -0.9 0
-14.1 -0.6 0
-14.1 -0.3 0
-14.1 0 0
-14.1 0.3 0
-14.1 0.6 0
-14.1 0.9 0
-14.1 1.2 0
-14.1 1.5 0
-14.1 1.8 0
-14.1 2.1 0
-14.1 2.4 0
-14.1 2.7 0
-14.1 3 0
-14.1 3.3 0
-14.1 3.6 0
-14.1 3.9 0
-14.1 4.2 0
-14.1 4.5 0
-14.1 4.8 0
-14.1 5.1 0
-14.1 5.4 0
-14.1 5.7 0
-14.1 6 0
-14.1 6.3 0
-14.1 6.6 0
-14.1 6.9 0
-14.1 7.2 0
-14.1 7.5 0
-14.1 7.8 0
-14.1 8.1 0
-14.1 8.4 0
-14.1 8.7 0
-14.1 9 0
-14.1 9.3 0
-14.1 9.6 0
-14.1 9.9 0
-14.1 10.2 0
-14.1 10.5 0
-14.1 10.8 0
-14.1 11.1 0
-14.1 11.4 0
-14.1 11.7 0
-14.1 12 0
-14.1 12.3 0
-14.1 12.6 0
-14.1 12.9 0
-14.1 13.2 0
-14.1 13.5 0
-14.1 13.8 0
-14.1 14.1 0
-14.1 14.4 0
-14.1 14.7 0
-14.1 15 0
-13.8 -15 0
-13.8 -14.7 0
-13.8 -14.4 0
-13.8 -14.1 0
-13.8 -13.8 0
-13.8 -13.5 0
-13.8 -13.2 0
-13.8 -12.9 0
-13.8 -12.6 0
-13.8 -12.3 0
-13.8 -12 0
-13.8 -11.7 0
-13.8 -11.4 0
-13.8 -11.1 0
-13.8 -10.8 0
-13.8 -10.5 0
-13.8 -10.2 0
-13.8 -9.9 0
-13.8 -9.6 0
-13.8 -9.3 0
-13.8 -9 0
-13.8 -8.7 0
-13.8 -8.4 0
-13.8 -8.1 0
-13.8 -7.8 0
-13.8 -7.5 0
-13.8 -7.2 0
-13.8 -6.9 0
-13.8 -6.6 0
-13.8 -6.3 0
-13.8 -6 0
-13.8 -5.7 0
-13.8 -5.4 0
-13.8 -5.1 0
-13.8 -4.8 0
-13.8 -4.5 0
-13.8 -4.2 0
-13.8 -3.9 0
-13.8 -3.6 0
-13.8 -3.3 0
-13.8 -3 0
-13.8 -2.7 0
-13.8 -2.4 0
-13.8 -2.1 0
-13.8 -1.8 0
-13.8 -1.5 0
-13.8 -1.2 0
-13.8 -0.9 0
-13.8 -0.6 0
-13.8 -0.3 0
-13.8 0 0
-13.8 0.3 0
-13.8 0.6 0
-13.8 0.9 0
-13.8 1.2 0
-13.8 1.5 0
-13.8 1.8 0
-13.8 2.1 0
-13.8 2.4 0
-13.8 2.7 0
-13.8 3 0
-13.8 3.3 0
-13.8 3.6 0
-13.8 3.9 0
-13.8 4.2 0
-13.8 4.5 0
-13.8 4.8 0
-13.8 5.1 0
-13.8 5.4 0
-13.8 5.7 0
-13.8 6 0
-13.8 6.3 0
-13.8 6.6 0
-13.8 6.9 0
-13.8 7.2 0
-13.8 7.5 0
-13.8 7.8 0
-13.8 8.1 0
-13.8 8.4 0
-13.8 8.7 0
-13.8 9 0
-13.8 9.3 0
-13.8 9.6 0
-13.8 9.9 0
-13.8 10.2 0
-13.8 10.5 0
-13.8 10.8 0
-13.8 11.1 0
-13.8 11.4 0
-13.8 11.7 0
-13.8 12 0
-13.8 12.3 0
-13.8 12.6 0
-13.8 12.9 0
-13.8 13.2 0
-13.8 13.5 0
-13.8 13.8 0
-13.8 14.1 0
-13.8 14.4 0
-13.8 14.7 0
-13.8 15 0
-13.5 -15 0
-13.5 -14.7 0
-13.5 -14.4 0
-13.5 -14.1 0
-13.5 -13.8 0
-13.5 -13.5 0
-13.5 -13.2 0
-13.5 -12.9 0
-13.5 -12.6 0
-13.5 -12.3 0
-13.5 -12 0
-13.5 -11.7 0
-13.5 -11.4 0
-13.5 -11.1 0
-13.5 -10.8 0
-13.5 -10.5 0
-13.5 -10.2 0
-13.5 -9.9 0
-13.5 -9.6 0
-13.5 -9.3 0
-13.5 -9 0
-13.5 -8.7 0
-13.5 -8.4 0
-13.5 -8.1 0
-13.5 -7.8 0
-13.5 -7.5 0
-13.5 -7.2 0
-13.5 -6.9 0
-13.5 -6.6 0
-13.5 -6.3 0
-13.5 -6 0
-13.5 -5.7 0
-13.5 -5.4 0
-13.5 -5.1 0
-13.5 -4.8 0
-13.5 -4.5 0
-13.5 -4.2 0
-13.5 -3.9 0
-13.5 -3.6 0
-13.5 -3.3 0
-13.5 -3 0
-13.5 -2.7 0
-13.5 -2.4 0
-13.5 -2.1 0
-13.5 -1.8 0
-13.5 -1.5 0
-13.5 -1.2 0
-13.5 -0.9 0
-13.5 -0.6 0
-13.5 -0.3 0
-13.5 0 0
-13.5 0.3 0
-13.5 0.6 0
-13.5 0.9 0
-13.5 1.2 0
-13.5 1.5 0
-13.5 1.8 0
-13.5 2.1 0
-13.5 2.4 0
-13.5 2.7 0
-13.5 3 0
-13.5 3.3 0
-13.5 3.6 0
-13.5 3.9 0
-13.5 4.2 0
-13.5 4.5 0
-13.5 4.8 0
-13.5 5.1 0
-13.5 5.4 0
-13.5 5.7 0
-13.5 6 0
-13.5 6.3 0
-13.5 6.6 0
-13.5 6.9 0
-13.5 7.2 0
-13.5 7.5 0
-13.5 7.8 0
-13.5 8.1 0
-13.5 8.4 0
-13.5 8.7 0
-13.5 9 0
-13.5 9.3 0
-13.5 9.6 0
-13.5 9.9 0
-13.5 10.2 0
-13.5 10.5 0
-13.5 10.8 0
-13.5 11.1 0
-13.5 11.4 0
-13.5 11.7 0
-13.5 12 0
-13.5 12.3 0
-13.5 12.6 0
-13.5 12.9 0
-13.5 13.2 0
-13.5 13.5 0
-13.5 13.8 0
-13.5 14.1 0
-13.5 14.4 0
-13.5 14.7 0
-13.5 15 0
-13.2 -15 0
-13.2 -14.7 0
-13.2 -14.4 0
-13.2 -14.1 0
-13.2 -13.8 0
-13.2 -13.5 0
-13.2 -13.2 0
-13.2 -12.9 0
-13.2 -12.6 0
-13.2 -12.3 0
-13.2 -12 0
-13.2 -11.7 0
-13.2 -11.4 0
-13.2 -11.1 0
-13.2 -10.8 0
-13.2 -10.5 0
-13.2 -10.2 0
-13.2 -9.9 0
-13.2 -9.6 0
-13.2 -9.3 0
-13.2 -9 0
-13.2 -8.7 0
-13.2 -8.4 0
-13.2 -8.1 0
-13.2 -7.8 0
-13.2 -7.5 0
-13.2 -7.2 0
-13.2 -6.9 0
-13.2 -6.6 0
-13.2 -6.3 0
-13.2 -6 0
-13.2 -5.7 0
-13.2 -5.4 0
-13.2 -5.1 0
-13.2 -4.8 0
-13.2 -4.5 0
-13.2 -4.2 0
-13.2 -3.9 0
-13.2 -3.6 0
-13.2 -3.3 0
-13.2 -3 0
-13.2 -2.7 0
-13.2 -2.4 0
-13.2 -2.1 0
-13.2 -1.8 0
-13.2 -1.5 0
-13.2 -1.2 0
-13.2 -0.9 0
-13.2 -0.6 0
-13.2 -0.3 0
-13.2 0 0
-13.2 0.3 0
-13.2 0.6 0
-13.2 0.9 0
-13.2 1.2 0
-13.2 1.5 0
-13.2 1.8 0
-13.2 2.1 0
-13.2 2.4 0
-13.2 2.7 0
-13.2 3 0
-13.2 3.3 0
-13.2 3.6 0
-13.2 3.9 0
-13.2 4.2 0
-13.2 4.5 0
-13.2 4.8 0
-13.2 5.1 0
-13.2 5.4 0
-13.2 5.7 0
-13.2 6 0
-13.2 6.3 0
-13.2 6.6 0
-13.2 6.9 0
-13.2 7.2 0
-13.2 7.5 0
-13.2 7.8 0
-13.2 8.1 0
-13.2 8.4 0
-13.2 8.7 0
-13.2 9 0
-13.2 9.3 0
-13.2 9.6 0
-13.2 9.9 0
-13.2 10.2 0
-13.2 10.5 0
-13.2 10.8 0
-13.2 11.1 0
-13.2 11.4 0
-13.2 11.7 0
-13.2 12 0
-13.2 12.3 0
-13.2 12.6 0
-13.2 12.9 0
-13.2 13.2 0
-13.2 13.5 0
-13.2 13.8 0
-13.2 14.1 0
-13.2 14.4 0
-13.2 14.7 0
-13.2 15 0
-12.9 -15 0
-12.9 -14.7 0
-12.9 -14.4 0
-12.9 -14.1 0
-12.9 -13.8 0
-12.9 -13.5 0
-12.9 -13.2 0
-12.9 -12.9 0
-12.9 -12.6 0
-12.9 -12.3 0
-12.9 -12 0
-12.9 -11.7 0
-12.9 -11.4 0
-12.9 -11.1 0
-12.9 -10.8 0
-12.9 -10.5 0
-12.9 -10.2 0
-12.9 -9.9 0
-12.9 -9.6 0
-12.9 -9.3 0
-12.9 -9 0
-12.9 -8.7 0
-12.9 -8.4 0
-12.9 -8.1 0
-12.9 -7.8 0
-12.9 -7.5 0
-12.9 -7.2 0
-12.9 -6.9 0
-12.9 -6.6 0
-12.9 -6.3 0
-12.9 -6 0
-12.9 -5.7 0
-12.9 -5.4 0
-12.9 -5.1 0
-12.9 -4.8 0
-12.9 -4.5 0
-12.9 -4.2 0
-12.9 -3.9 0
-12.9 -3.6 0
-12.9 -3.3 0
-12.9 -3 0
-12.9 -2.7 0
-12.9 -2.4 0
-12.9 -2.1 0
-12.9 -1.8 0
-12.9 -1.5 0
-12.9 -1.2 0
-12.9 -0.9 0
-12.9 -0.6 0
-12.9 -0.3 0
-12.9 0 0
-12.9 0.3 0
-12.9 0.6 0
-12.9 0.9 0
-12.9 1.2 0
-12.9 1.5 0
-12.9 1.8 0
-12.9 2.1 0
-12.9 2.4 0
-12.9 2.7 0
-12.9 3 0
-12.9 3.3 0
-12.9 3.6 0
-12.9 3.9 0
-12.9 4.2 0
-12.9 4.5 0
-12.9 4.8 0
-12.9 5.1 0
-12.9 5.4 0
-12.9 5.7 0
-12.9 6 0
-12.9 6.3 0
-12.9 6.6 0
-12.9 6.9 0
-12.9 7.2 0
-12.9 7.5 0
-12.9 7.8 0
-12.9 8.1 0
-12.9 8.4 0
-12.9 8.7 0
-12.9 9 0
[...]
            <PointData>
                <DataArray type="Float64" Name="c1" format="ascii">
1.11867e-05 1.12764e-05 1.15458e-05 1.19965e-05 1.26309e-05 1.34524e-05 1.44653e-05 1.56745e-05 1.70856e-05 1.87048e-05 2.05388e-05 2.25943e-05 2.48781e-05 2.7397e-05 3.01573e-05 3.31648e-05 3.64244e-05 3.994e-05 4.37141e-05 4.77477e-05 5.20399e-05 5.65878e-05 6.13861e-05 6.64269e-05 7.16997e-05 7.71909e-05 8.2884e-05 8.87591e-05 9.47932e-05 0.00010096 0.00010723 0.000113571 0.000119948 0.000126321 0.000132652 0.000138897 0.000145012 0.000150952 0.000156672 0.000162126 0.000167269 0.000172057 0.000176449 0.000180405 0.000183889 0.000186868 0.000189315 0.000191207 0.000192524 0.000193255 0.000193392 0.000192933 0.000191884 0.000190254 0.000188059 0.00018532 0.000182063 0.000178319 0.000174122 0.00016951 0.000164523 0.000159205 0.0001536 0.000147753 0.000141711 0.000135518 0.000129219 0.000122858 0.000116475 0.000110111 0.000103801 9.758e-05 9.14784e-05 8.5524e-05 7.97411e-05 7.41511e-05 6.87719e-05 6.36182e-05 5.8702e-05 5.40321e-05 4.96149e-05 4.54541e-05 4.15515e-05 3.79065e-05 3.45172e-05 3.138e-05 2.849e-05 2.58417e-05 2.34285e-05 2.12435e-05 1.92796e-05 1.75293e-05 1.59857e-05 1.46419e-05 1.34914e-05 1.25285e-05 1.1748e-05 1.11455e-05 1.07177e-05 1.04621e-05 1.0377e-05 
1.12764e-05 1.13668e-05 1.16387e-05 1.20934e-05 1.27335e-05 1.35625e-05 1.45845e-05 1.58047e-05 1.72287e-05 1.88629e-05 2.07139e-05 2.27885e-05 2.50939e-05 2.76366e-05 3.04233e-05 3.34597e-05 3.67509e-05 4.03009e-05 4.41124e-05 4.81862e-05 5.25217e-05 5.71158e-05 6.19634e-05 6.70564e-05 7.23844e-05 7.79337e-05 8.36874e-05 8.96258e-05 9.57255e-05 0.00010196 0.0001083 0.000114711 0.00012116 0.000127606 0.000134009 0.000140326 0.000146512 0.000152522 0.000158309 0.000163828 0.000169032 0.000173877 0.000178322 0.000182326 0.000185852 0.000188868 0.000191345 0.000193259 0.000194593 0.000195333 0.000195471 0.000195007 0.000193944 0.000192294 0.000190073 0.0001873 0.000184004 0.000180214 0.000175967 0.000171299 0.000166253 0.000160871 0.0001552 0.000149285 0.000143172 0.000136907 0.000130536 0.000124102 0.000117647 0.000111212 0.000104832 9.85423e-05 9.23741e-05 8.63553e-05 8.05106e-05 7.48612e-05 6.94255e-05 6.42182e-05 5.92513e-05 5.45338e-05 5.00719e-05 4.58695e-05 4.19281e-05 3.82473e-05 3.4825e-05 3.16575e-05 2.874e-05 2.60665e-05 2.36306e-05 2.14252e-05 1.9443e-05 1.76767e-05 1.6119e-05 1.47629e-05 1.36021e-05 1.26304e-05 1.18429e-05 1.12351e-05 1.08035e-05 1.05455e-05 1.04597e-05 
1.15458e-05 1.16387e-05 1.19178e-05 1.23847e-05 1.3042e-05 1.38933e-05 1.49429e-05 1.61963e-05 1.76592e-05 1.93382e-05 2.12403e-05 2.33727e-05 2.57426e-05 2.83572e-05 3.12231e-05 3.43467e-05 3.77333e-05 4.1387e-05 4.53107e-05 4.95058e-05 5.39715e-05 5.87049e-05 6.37009e-05 6.89514e-05 7.44456e-05 8.01697e-05 8.61064e-05 9.22355e-05 9.85329e-05 0.000104971 0.00011152 0.000118145 0.00012481 0.000131475 0.000138096 0.00014463 0.000151031 0.000157251 0.000163242 0.000168955 0.000174344 0.000179363 0.000183967 0.000188116 0.000191769 0.000194895 0.000197462 0.000199447 0.000200829 0.000201596 0.000201739 0.000201258 0.000200157 0.000198446 0.000196143 0.00019327 0.000189854 0.000185928 0.000181527 0.000176692 0.000171465 0.000165893 0.000160022 0.000153899 0.000147574 0.000141093 0.000134503 0.000127851 0.000121178 0.000114527 0.000107936 0.00010144 9.50713e-05 8.88584e-05 8.2827e-05 7.6999e-05 7.13929e-05 6.60241e-05 6.09045e-05 5.60435e-05 5.14471e-05 4.71193e-05 4.30613e-05 3.92727e-05 3.57511e-05 3.24924e-05 2.94917e-05 2.67426e-05 2.42384e-05 2.19716e-05 1.99346e-05 1.81198e-05 1.65196e-05 1.51268e-05 1.39346e-05 1.29369e-05 1.21283e-05 1.15043e-05 1.10612e-05 1.07964e-05 1.07083e-05 
1.19965e-05 1.20934e-05 1.23847e-05 1.2872e-05 1.35581e-05 1.44468e-05 1.55428e-05 1.68516e-05 1.83797e-05 2.0134e-05 2.21218e-05 2.4351e-05 2.68292e-05 2.95642e-05 3.25632e-05 3.58331e-05 3.93795e-05 4.32073e-05 4.73197e-05 5.17183e-05 5.64027e-05 6.13701e-05 6.66154e-05 7.21305e-05 7.79042e-05 8.39222e-05 9.01668e-05 9.66166e-05 0.000103247 0.000110028 0.000116929 0.000123914 0.000130944 0.000137976 0.000144966 0.000151866 0.000158628 0.000165202 0.000171536 0.000177578 0.00018328 0.000188591 0.000193465 0.000197857 0.000201726 0.000205037 0.000207756 0.000209859 0.000211324 0.000212136 0.000212288 0.000211778 0.000210611 0.000208799 0.000206359 0.000203315 0.000199697 0.000195539 0.00019088 0.000185762 0.000180232 0.000174338 0.00016813 0.000161658 0.000154974 0.000148128 0.00014117 0.000134149 0.00012711 0.000120097 0.00011315 0.000106306 9.95995e-05 9.30602e-05 8.67148e-05 8.05862e-05 7.46939e-05 6.90535e-05 6.36775e-05 5.85752e-05 5.3753e-05 4.92145e-05 4.49609e-05 4.09913e-05 3.73029e-05 3.38913e-05 3.0751e-05 2.78751e-05 2.52562e-05 2.28865e-05 2.07577e-05 1.88617e-05 1.71903e-05 1.57358e-05 1.44911e-05 1.34497e-05 1.26058e-05 1.19547e-05 1.14923e-05 1.12161e-05 1.11242e-05 
1.26309e-05 1.27335e-05 1.3042e-05 1.35581e-05 1.42849e-05 1.52264e-05 1.63877e-05 1.77749e-05 1.9395e-05 2.12555e-05 2.33644e-05 2.57303e-05 2.83616e-05 3.12668e-05 3.44539e-05 3.79305e-05 4.17032e-05 4.57773e-05 5.01566e-05 5.48433e-05 5.98374e-05 6.51364e-05 7.0735e-05 7.6625e-05 8.27951e-05 8.92301e-05 9.59115e-05 0.000102817 0.000109919 0.000117188 0.00012459 0.000132086 0.000139634 0.000147189 0.000154703 0.000162125 0.000169402 0.00017648 0.000183302 0.000189814 0.000195961 0.000201689 0.000206947 0.000211686 0.000215864 0.000219438 0.000222375 0.000224646 0.000226229 0.000227106 0.00022727 0.000226719 0.000225458 0.0002235 0.000220865 0.000217578 0.000213672 0.000209184 0.000204156 0.000198636 0.000192673 0.00018632 0.00017963 0.000172661 0.000165466 0.000158101 0.00015062 0.000143074 0.000135514 0.000127986 0.000120533 0.000113195 0.000106008 9.90054e-05 9.22145e-05 8.56596e-05 7.93612e-05 7.33358e-05 6.75963e-05 6.21524e-05 5.70102e-05 5.21735e-05 4.76429e-05 4.34172e-05 3.9493e-05 3.58652e-05 3.25274e-05 2.94723e-05 2.66915e-05 2.41764e-05 2.19179e-05 1.99071e-05 1.81351e-05 1.65937e-05 1.5275e-05 1.41718e-05 1.32782e-05 1.25887e-05 1.20992e-05 1.18067e-05 1.17095e-05 
1.34524e-05 1.35625e-05 1.38933e-05 1.44468e-05 1.52264e-05 1.62364e-05 1.74827e-05 1.89719e-05 2.07115e-05 2.27101e-05 2.49765e-05 2.75202e-05 3.03507e-05 3.34775e-05 3.69096e-05 4.06556e-05 4.4723e-05 4.91181e-05 5.38456e-05 5.89082e-05 6.43065e-05 7.00383e-05 7.60984e-05 8.24786e-05 8.91669e-05 9.61474e-05 0.0001034 0.000110902 0.000118623 0.000126531 0.000134589 0.000142755 0.000150984 0.000159227 0.000167429 0.000175537 0.00018349 0.00019123 0.000198696 0.000205825 0.000212558 0.000218835 0.0002246 0.000229798 0.000234381 0.000238304 0.000241528 0.000244021 0.000245758 0.000246722 0.000246902 0.000246297 0.000244912 0.000242762 0.000239869 0.000236261 0.000231975 0.000227052 0.000221539 0.000215488 0.000208954 0.000201997 0.000194675 0.000187051 0.000179184 0.000171137 0.000162968 0.000154733 0.000146488 0.000138284 0.000130167 0.000122182 0.000114367 0.000106757 9.93826e-05 9.22699e-05 8.54405e-05 7.89119e-05 7.26975e-05 6.68073e-05 6.12476e-05 5.60216e-05 5.11298e-05 4.65702e-05 4.23386e-05 3.84291e-05 3.48343e-05 3.15458e-05 2.85543e-05 2.585e-05 2.34228e-05 2.12627e-05 1.93601e-05 1.77056e-05 1.62906e-05 1.51074e-05 1.4149e-05 1.34097e-05 1.2885e-05 1.25715e-05 1.24673e-05 
1.44653e-05 1.45845e-05 1.49429e-05 1.55428e-05 1.63877e-05 1.74827e-05 1.88341e-05 2.04495e-05 2.23373e-05 2.4507e-05 2.69687e-05 2.97329e-05 3.28105e-05 3.62122e-05 3.99484e-05 4.40289e-05 4.84626e-05 5.32567e-05 5.84172e-05 6.39476e-05 6.98491e-05 7.61201e-05 8.27555e-05 8.97468e-05 9.70817e-05 0.000104743 0.00011271 0.000120957 0.000129452 0.00013816 0.000147039 0.000156046 0.000165128 0.000174232 0.000183299 0.000192267 0.000201071 0.000209644 0.000217918 0.000225825 0.000233296 0.000240265 0.000246667 0.000252443 0.000257537 0.000261899 0.000265485 0.000268259 0.000270192 0.000271264 0.000271464 0.00027079 0.00026925 0.000266858 0.000263639 0.000259627 0.000254861 0.00024939 0.000243265 0.000236546 0.000229294 0.000221576 0.000213459 0.00020501 0.0001963 0.000187396 0.000178362 0.000169264 0.000160161 0.000151109 0.000142161 0.000133365 0.000124764 0.000116395 0.000108292 0.000100482 9.29902e-05 8.58338e-05 7.90275e-05 7.25813e-05 6.65015e-05 6.07912e-05 5.54501e-05 5.04753e-05 4.58617e-05 4.16023e-05 3.76885e-05 3.41104e-05 3.08574e-05 2.79184e-05 2.52821e-05 2.29371e-05 2.08726e-05 1.90781e-05 1.75439e-05 1.62614e-05 1.5223e-05 1.44221e-05 1.38538e-05 1.35143e-05 1.34014e-05 
1.56744e-05 1.58047e-05 1.61962e-05 1.68516e-05 1.77749e-05 1.89718e-05 2.04495e-05 2.22163e-05 2.42821e-05 2.66573e-05 2.93536e-05 3.23829e-05 3.57575e-05 3.949e-05 4.35922e-05 4.80756e-05 5.29504e-05 5.82257e-05 6.39084e-05 7.00033e-05 7.65126e-05 8.3435e-05 9.07661e-05 9.8497e-05 0.000106615 0.000115101 0.000123934 0.000133085 0.00014252 0.000152199 0.000162078 0.000172107 0.000182228 0.000192382 0.000202503 0.000212521 0.000222363 0.000231954 0.000241217 0.000250074 0.000258448 0.000266263 0.000273447 0.000279931 0.000285652 0.000290552 0.000294582 0.0002977 0.000299873 0.000301078 0.000301303 0.000300546 0.000298814 0.000296125 0.000292507 0.000287999 0.000282646 0.000276502 0.000269628 0.00026209 0.00025396 0.000245311 0.000236221 0.000226766 0.000217025 0.000207074 0.000196987 0.000186835 0.000176686 0.000166603 0.000156645 0.000146863 0.000137306 0.000128016 0.000119029 0.000110376 0.000102081 9.41648e-05 8.66424e-05 7.95241e-05 7.28162e-05 6.65211e-05 6.06379e-05 5.51625e-05 5.00887e-05 4.54079e-05 4.11099e-05 3.71833e-05 3.3616e-05 3.0395e-05 2.75073e-05 2.49403e-05 2.26814e-05 2.07188e-05 1.90417e-05 1.76401e-05 1.65056e-05 1.56309e-05 1.50103e-05 1.46396e-05 1.45164e-05 
1.70856e-05 1.72287e-05 1.76592e-05 1.83797e-05 1.9395e-05 2.07115e-05 2.23373e-05 2.42821e-05 2.65567e-05 2.91735e-05 3.21455e-05 3.54866e-05 3.92108e-05 4.33327e-05 4.7866e-05 5.28242e-05 5.82194e-05 6.40624e-05 7.03619e-05 7.7124e-05 8.43519e-05 9.20454e-05 0.0001002 0.000108808 0.000117854 0.00012732 0.000137182 0.000147408 0.000157961 0.000168797 0.000179868 0.000191115 0.000202478 0.000213886 0.000225267 0.000236542 0.000247627 0.000258438 0.000268886 0.000278884 0.000288342 0.000297174 0.000305298 0.000312634 0.000319109 0.000324657 0.000329221 0.000332753 0.000335215 0.000336581 0.000336836 0.000335978 0.000334015 0.000330968 0.000326871 0.000321766 0.000315706 0.000308753 0.000300978 0.000292456 0.00028327 0.000273504 0.000263247 0.000252586 0.00024161 0.000230406 0.000219059 0.000207648 0.00019625 0.000184936 0.000173772 0.000162816 0.000152122 0.000141737 0.000131699 0.000122043 0.000112795 0.000103978 9.56076e-05 8.76938e-05 8.02428e-05 7.32566e-05 6.67329e-05 6.06667e-05 5.50499e-05 4.98723e-05 4.51217e-05 4.07849e-05 3.68475e-05 3.32948e-05 3.01118e-05 2.72837e-05 2.47965e-05 2.26366e-05 2.07916e-05 1.92504e-05 1.80032e-05 1.70419e-05 1.636e-05 1.59527e-05 1.58172e-05 
1.87048e-05 1.88629e-05 1.93382e-05 2.0134e-05 2.12555e-05 2.27101e-05 2.4507e-05 2.66573e-05 2.91735e-05 3.20696e-05 3.53606e-05 3.90625e-05 4.31917e-05 4.77647e-05 5.2798e-05 5.83071e-05 6.43066e-05 7.08093e-05 7.78259e-05 8.53643e-05 9.34293e-05 0.000102022 0.000111137 0.000120768 0.0001309 0.000141512 0.000152578 0.000164064 0.000175928 0.000188124 0.000200594 0.000213276 0.000226099 0.000238986 0.000251853 0.000264611 0.000277165 0.000289418 0.000301269 0.000312617 0.00032336 0.000333399 0.000342637 0.000350984 0.000358354 0.000364672 0.000369872 0.000373896 0.000376702 0.00037826 0.000378551 0.000377572 0.000375335 0.000371864 0.000367195 0.000361381 0.000354481 0.000346569 0.000337724 0.000328036 0.000317598 0.000306509 0.00029487 0.000282782 0.000270346 0.000257663 0.000244828 0.000231932 0.000219064 0.000206302 0.00019372 0.000181385 0.000169357 0.000157686 0.000146418 0.000135588 0.000125227 0.000115358 0.000105997 9.71559e-05 8.88392e-05 8.10483e-05 7.37799e-05 6.70269e-05 6.07795e-05 5.50253e-05 4.97499e-05 4.49376e-05 4.05716e-05 3.66349e-05 3.311e-05 2.99802e-05 2.7229e-05 2.48411e-05 2.28023e-05 2.10998e-05 1.97226e-05 1.86613e-05 1.79086e-05 1.74591e-05 1.73096e-05 
2.05388e-05 2.07139e-05 2.12403e-05 2.21218e-05 2.33644e-05 2.49765e-05 2.69687e-05 2.93535e-05 3.21455e-05 3.53606e-05 3.90162e-05 4.31307e-05 4.77232e-05 5.28128e-05 5.84188e-05 6.45596e-05 7.12524e-05 7.85126e-05 8.63534e-05 9.47849e-05 0.000103814 0.000113442 0.000123666 0.000134479 0.000145865 0.000157802 0.000170263 0.000183209 0.000196596 0.000210369 0.000224467 0.000238819 0.000253344 0.000267955 0.000282557 0.000297049 0.000311321 0.000325263 0.000338758 0.00035169 0.000363941 0.000375397 0.000385945 0.000395481 0.000403905 0.00041113 0.000417077 0.000421682 0.000424894 0.000426676 0.00042701 0.000425891 0.000423331 0.000419358 0.000414018 0.000407368 0.000399481 0.000390439 0.000380337 0.000369278 0.000357371 0.000344729 0.000331469 0.00031771 0.000303566 0.000289153 0.00027458 0.000259952 0.000245368 0.000230919 0.000216688 0.000202751 0.000189173 0.000176012 0.000163318 0.00015113 0.000139482 0.000128397 0.000117894 0.000107983 9.86693e-05 8.99526e-05 8.18278e-05 7.4286e-05 6.73148e-05 6.08994e-05 5.50225e-05 4.96657e-05 4.48093e-05 4.04334e-05 3.6518e-05 3.30434e-05 2.99909e-05 2.73428e-05 2.50828e-05 2.31964e-05 2.1671e-05 2.04958e-05 1.96624e-05 1.91649e-05 1.89994e-05 
2.25943e-05 2.27885e-05 2.33727e-05 2.43509e-05 2.57302e-05 2.75202e-05 2.97329e-05 3.23828e-05 3.54865e-05 3.90625e-05 4.31307e-05 4.77125e-05 5.28299e-05 5.85054e-05 6.47614e-05 7.16195e-05 7.91004e-05 8.72225e-05 9.60019e-05 0.000105451 0.000115579 0.00012639 0.000137882 0.000150047 0.00016287 0.000176329 0.00019039 0.000205016 0.000220154 0.000235746 0.000251722 0.000268001 0.000284494 0.000301101 0.000317714 0.000334216 0.000350484 0.000366388 0.000381796 0.000396572 0.000410581 0.000423689 0.000435767 0.000446691 0.000456347 0.000464632 0.000471454 0.000476739 0.000480426 0.000482473 0.000482856 0.000481572 0.000478634 0.000474077 0.00046795 0.000460324 0.000451281 0.00044092 0.000429351 0.000416692 0.000403071 0.000388621 0.000373475 0.000357771 0.000341643 0.000325221 0.000308634 0.000292 0.000275432 0.000259033 0.000242899 0.000227114 0.000211751 0.000196877 0.000182544 0.000168798 0.000155674 0.000143197 0.000131387 0.000120254 0.000109802 0.00010003 9.09297e-05 8.24901e-05 7.4696e-05 6.75294e-05 6.09698e-05 5.49954e-05 4.95832e-05 4.47099e-05 4.03523e-05 3.64878e-05 3.30946e-05 3.01525e-05 2.76428e-05 2.55488e-05 2.3856e-05 2.25523e-05 2.1628e-05 2.10762e-05 2.08927e-05 
2.48781e-05 2.50938e-05 2.57426e-05 2.68292e-05 2.83615e-05 3.03507e-05 3.28105e-05 3.57575e-05 3.92108e-05 4.31917e-05 4.77231e-05 5.28299e-05 5.85375e-05 6.48721e-05 7.186e-05 7.95268e-05 8.78966e-05 9.69919e-05 0.000106832 0.000117433 0.000128807 0.000140959 0.00015389 0.000167592 0.00018205 0.00019724 0.000213128 0.000229671 0.000246812 0.000264486 0.000282614 0.000301106 0.00031986 0.000338763 0.000357691 0.000376512 0.000395083 0.000413255 0.000430876 0.000447788 0.000463835 0.00047886 0.000492713 0.000505251 0.00051634 0.000525858 0.0005337 0.000539776 0.000544016 0.000546371 0.000546814 0.000545338 0.000541961 0.000536722 0.000529681 0.000520918 0.000510533 0.000498639 0.000485364 0.000470849 0.000455241 0.000438694 0.000421366 0.000403413 0.000384992 0.000366253 0.000347343 0.000328399 0.00030955 0.000290913 0.000272595 0.000254693 0.000237289 0.000220456 0.000204254 0.000188731 0.000173926 0.000159867 0.000146573 0.000134054 0.000122312 0.000111345 0.000101142 9.1688e-05 8.29653e-05 7.49518e-05 6.76232e-05 6.09538e-05 5.49166e-05 4.94844e-05 4.46304e-05 4.03283e-05 3.65531e-05 3.32815e-05 3.0492e-05 2.81656e-05 2.62854e-05 2.48378e-05 2.38118e-05 2.31993e-05 2.29957e-05 
2.7397e-05 2.76366e-05 2.83571e-05 2.95641e-05 3.12667e-05 3.34774e-05 3.62122e-05 3.94899e-05 4.33326e-05 4.77647e-05 5.28128e-05 5.85053e-05 6.48721e-05 7.19435e-05 7.97503e-05 8.83224e-05 9.76887e-05 0.000107876 0.000118908 0.000130804 0.000143579 0.000157243 0.000171797 0.000187236 0.000203544 0.000220696 0.000238656 0.000257376 0.000276795 0.00029684 0.000317422 0.00033844 0.000359779 0.000381311 0.000402894 0.000424375 0.000445593 0.000466375 0.000486544 0.000505919 0.000524318 0.000541558 0.000557465 0.000571871 0.000584619 0.000595567 0.00060459 0.000611585 0.000616468 0.000619182 0.000619693 0.000617996 0.00061411 0.000608081 0.00059998 0.000589901 0.00057796 0.000564291 0.000549045 0.000532383 0.00051448 0.000495515 0.00047567 0.000455128 0.00043407 0.00041267 0.000391096 0.000369505 0.000348044 0.000326849 0.00030604 0.000285725 0.000265998 0.000246939 0.000228615 0.000211078 0.000194371 0.000178523 0.000163553 0.000149471 0.000136277 0.000123965 0.000112522 0.00010193 9.21665e-05 8.32043e-05 7.50152e-05 6.75687e-05 6.08333e-05 5.47774e-05 4.93697e-05 4.45799e-05 4.03793e-05 3.67409e-05 3.36401e-05 3.10551e-05 2.89668e-05 2.73593e-05 2.62201e-05 2.55403e-05 2.53143e-05 
3.01573e-05 3.04232e-05 3.12231e-05 3.25632e-05 3.44539e-05 3.69095e-05 3.99484e-05 4.35921e-05 4.78659e-05 5.27979e-05 5.84188e-05 6.47613e-05 7.186e-05 7.97503e-05 8.84679e-05 9.80482e-05 0.000108525 0.000119931 0.000132294 0.000145638 0.000159984 0.000175343 0.000191719 0.00020911 0.0002275 0.000246864 0.000267163 0.000288345 0.000310342 0.000333074 0.000356443 0.000380333 0.000404616 0.000429144 0.000453758 0.000478283 0.00050253 0.000526304 0.000549399 0.000571604 0.000592707 0.000612499 0.000630773 0.000647333 0.000661997 0.000674598 0.000684988 0.000693046 0.000698674 0.000701803 0.000702395 0.000700443 0.000695969 0.000689028 0.000679702 0.000668103 0.000654367 0.00063865 0.000621129 0.000601995 0.00058145 0.000559704 0.000536969 0.000513457 0.000489376 0.00046493 0.000440311 0.000415699 0.000391263 0.000367156 0.000343515 0.000320463 0.000298103 0.000276526 0.000255804 0.000235996 0.000217146 0.000199286 0.000182433 0.000166597 0.000151776 0.000137959 0.000125131 0.000113269 0.000102344 9.23249e-05 8.31783e-05 7.48679e-05 6.73571e-05 6.0609e-05 5.45874e-05 4.92574e-05 4.45857e-05 4.05414e-05 3.70964e-05 3.42256e-05 3.19072e-05 3.01231e-05 2.88591e-05 2.81049e-05 2.78542e-05 
3.31647e-05 3.34596e-05 3.43467e-05 3.5833e-05 3.79305e-05 4.06555e-05 4.40288e-05 4.80755e-05 5.28241e-05 5.8307e-05 6.45595e-05 7.16194e-05 7.95267e-05 8.83223e-05 9.80481e-05 0.000108745 0.000120454 0.000133213 0.000147056 0.000162013 0.000178108 0.000195359 0.000213773 0.000233349 0.000254073 0.000275919 0.000298847 0.0003228 0.000347706 0.000373473 0.000399993 0.000427137 0.000454759 0.000482693 0.000510756 0.000538748 0.000566454 0.000593646 0.000620088 0.000645535 0.000669742 0.000692463 0.000713458 0.000732499 0.00074937 0.000763875 0.000775843 0.000785128 0.000791617 0.000795227 0.000795915 0.00079367 0.000788519 0.000780527 0.00076979 0.00075644 0.000740636 0.000722562 0.000702426 0.000680451 0.000656874 0.000631939 0.000605893 0.000578983 0.00055145 0.000523529 0.00049544 0.000467392 0.000439577 0.000412168 0.000385321 0.000359173 0.000333842 0.000309427 0.000286008 0.000263648 0.000242394 0.000222279 0.000203321 0.000185526 0.00016889 0.000153398 0.000139029 0.000125755 0.000113541 0.000102351 9.21445e-05 8.28787e-05 7.45112e-05 6.6999e-05 6.03003e-05 5.43748e-05 4.91843e-05 4.46933e-05 4.08697e-05 3.76846e-05 3.51134e-05 3.31354e-05 3.17342e-05 3.08983e-05 3.06204e-05 