<?xml version="1.0"?>
<VTKFile type="StructuredGrid" version="0.1">
    <StructuredGrid WholeExtent="0 100 0 100 0 0">
        <Piece Extent="0 100 0 100 0 0">
            <Points>
                <DataArray type="Float64" NumberOfComponents="3" format="ascii">
-15 -15 0
-15 -14.7 0
-15 -14.4 0
-15 -14.1 0
-15 -13.8 0
-15 -13.5 0
-15 -13.2 0
-15 -12.9 0
-15 -12.6 0
-15 -12.3 0
-15 -12 0
-15 -11.7 0
-15 -11.4 0
-15 -11.1 0
-15 -10.8 0
-15 -10.5 0
-15 -10.2 0
-15 -9.9 0
-15 -9.6 0
-15 -9.3 0
-15 -9 0
-15 -8.7 0
-15 -8.4 0
-15 -8.1 0
-15 -7.8 0
-15 -7.5 0
-15 -7.2 0
-15 -6.9 0
-15 -6.6 0
-15 -6.3 0
-15 -6 0
-15 -5.7 0
-15 -5.4 0
-15 -5.1 0
-15 -4.8 0
-15 -4.5 0
-15 -4.2 0
-15 -3.9 0
-15 -3.6 0
-15 -3.3 0
-15 -3 0
-15 -2.7 0
-15 -2.4 0
-15 -2.1 0
-15 -1.8 0
-15 -1.5 0
-15 -1.2 0
-15 -0.9 0
-15 -0.6 0
-15 -0.3 0
-15 0 0
-15 0.3 0
-15 0.6 0
-15 0.9 0
-15 1.2 0
-15 1.5 0
-15 1.8 0
-15 2.1 0
-15 2.4 0
-15 2.7 0
-15 3 0
-15 3.3 0
-15 3.6 0
-15 3.9 0
-15 4.2 0
-15 4.5 0
-15 4.8 0
-15 5.1 0
-15 5.4 0
-15 5.7 0
-15 6 0
-15 6.3 0
-15 6.6 0
-15 6.9 0
-15 7.2 0
-15 7.5 0
-15 7.8 0
-15 8.1 0
-15 8.4 0
-15 8.7 0
-15 9 0
-15 9.3 0
-15 9.6 0
-15 9.9 0
-15 10.2 0
-15 10.5 0
-15 10.8 0
-15 11.1 0
-15 11.4 0
-15 11.7 0
-15 12 0
-15 12.3 0
-15 12.6 0
-15 12.9 0
-15 13.2 0
-15 13.5 0
-15 13.8 0
-15 14.1 0
-15 14.4 0
-15 14.7 0
-15 15 0
-14.7 -15 0
-14.7 -14.7 0
-14.7 -14.4 0
-14.7 -14.1 0
-14.7 -13.8 0
-14.7 -13.5 0
-14.7 -13.2 0
-14.7 -12.9 0
-14.7 -12.6 0
-14.7 -12.3 0
-14.7 -12 0
-14.7 -11.7 0
-14.7 -11.4 0
-14.7 -11.1 0
-14.7 -10.8 0
-14.7 -10.5 0
-14.7 -10.2 0
-14.7 -9.9 0
-14.7 -9.6 0
-14.7 -9.3 0
-14.7 -9 0
-14.7 -8.7 0
-14.7 -8.4 0
-14.7 -8.1 0
-14.7 -7.8 0
-14.7 -7.5 0
-14.7 -7.2 0
-14.7 -6.9 0
-14.7 -6.6 0
-14.7 -6.3 0
-14.7 -6 0
-14.7 -5.7 0
-14.7 -5.4 0
-14.7 -5.1 0
-14.7 -4.8 0
-14.7 -4.5 0
-14.7 -4.2 0
-14.7 -3.9 0
-14.7 -3.6 0
-14.7 -3.3 0
-14.7 -3 0
-14.7 -2.7 0
-14.7 -2.4 0
-14.7 -2.1 0
-14.7 -1.8 0
-14.7 -1.5 0
-14.7 -1.2 0
-14.7 -0.9 0
-14.7 -0.6 0
-14.7 -0.3 0
-14.7 0 0
-14.7 0.3 0
-14.7 0.6 0
-14.7 0.9 0
-14.7 1.2 0
-14.7 1.5 0
-14.7 1.8 0
-14.7 2.1 0
-14.7 2.4 0
-14.7 2.7 0
-14.7 3 0
-14.7 3.3 0
-14.7 3.6 0
-14.7 3.9 0
-14.7 4.2 0
-14.7 4.5 0
-14.7 4.8 0
-14.7 5.1 0
-14.7 5.4 0
-14.7 5.7 0
-14.7 6 0
-14.7 6.3 0
-14.7 6.6 0
-14.7 6.9 0
-14.7 7.2 0
-14.7 7.5 0
-14.7 7.8 0
-14.7 8.1 0
-14.7 8.4 0
-14.7 8.7 0
-14.7 9 0
-14.7 9.3 0
-14.7 9.6 0
-14.7 9.9 0
-14.7 10.2 0
-14.7 10.5 0
-14.7 10.8 0
-14.7 11.1 0
-14.7 11.4 0
-14.7 11.7 0
-14.7 12 0
-14.7 12.3 0
-14.7 12.6 0
-14.7 12.9 0
-14.7 13.2 0
-14.7 13.5 0
-14.7 13.8 0
-14.7 14.1 0
-14.7 14.4 0
-14.7 14.7 0
-14.7 15 0
-14.4 -15 0
-14.4 -14.7 0
-14.4 -14.4 0
-14.4 -14.1 0
-14.4 -13.8 0
-14.4 -13.5 0
-14.4 -13.2 0
-14.4 -12.9 0
-14.4 -12.6 0
-14.4 -12.3 0
-14.4 -12 0
-14.4 -11.7 0
-14.4 -11.4 0
-14.4 -11.1 0
-14.4 -10.8 0
-14.4 -10.5 0
-14.4 -10.2 0
-14.4 -9.9 0
-14.4 -9.6 0
-14.4 -9.3 0
-14.4 -9 0
-14.4 -8.7 0
-14.4 -8.4 0
-14.4 -8.1 0
-14.4 -7.8 0
-14.4 -7.5 0
-14.4 -7.2 0
-14.4 -6.9 0
-14.4 -6.6 0
-14.4 -6.3 0
-14.4 -6 0
-14.4 -5.7 0
-14.4 -5.4 0
-14.4 -5.1 0
-14.4 -4.8 0
-14.4 -4.5 0
-14.4 -4.2 0
-14.4 -3.9 0
-14.4 -3.6 0
-14.4 -3.3 0
-14.4 -3 0
-14.4 -2.7 0
-14.4 -2.4 0
-14.4 -2.1 0
-14.4 -1.8 0
-14.4 -1.5 0
-14.4 -1.2 0
-14.4 -0.9 0
-14.4 -0.6 0
-14.4 -0.3 0
-14.4 0 0
-14.4 0.3 0
-14.4 0.6 0
-14.4 0.9 0
-14.4 1.2 0
-14.4 1.5 0
-14.4 1.8 0
-14.4 2.1 0
-14.4 2.4 0
-14.4 2.7 0
-14.4 3 0
-14.4 3.3 0
-14.4 3.6 0
-14.4 3.9 0
-14.4 4.2 0
-14.4 4.5 0
-14.4 4.8 0
-14.4 5.1 0
-14.4 5.4 0
-14.4 5.7 0
-14.4 6 0
-14.4 6.3 0
-14.4 6.6 0
-14.4 6.9 0
-14.4 7.2 0
-14.4 7.5 0
-14.4 7.8 0
-14.4 8.1 0
-14.4 8.4 0
-14.4 8.7 0
-14.4 9 0
-14.4 9.3 0
-14.4 9.6 0
-14.4 9.9 0
-14.4 10.2 0
-14.4 10.5 0
-14.4 10.8 0
-14.4 11.1 0
-14.4 11.4 0
-14.4 11.7 0
-14.4 12 0
-14.4 12.3 0
-14.4 12.6 0
-14.4 12.9 0
-14.4 13.2 0
-14.4 13.5 0
-14.4 13.8 0
-14.4 14.1 0
-14.4 14.4 0
-14.4 14.7 0
-14.4 15 0
-14.1 -15 0
-14.1 -14.7 0
-14.1 -14.4 0
-14.1 -14.1 0
-14.1 -13.8 0
-14.1 -13.5 0
-14.1 -13.2 0
-14.1 -12.9 0
-14.1 -12.6 0
-14.1 -12.3 0
-14.1 -12 0
-14.1 -11.7 0
-14.1 -11.4 0
-14.1 -11.1 0
-14.1 -10.8 0
-14.1 -10.5 0
-14.1 -10.2 0
-14.1 -9.9 0
-14.1 -9.6 0
-14.1 -9.3 0
-14.1 -9 0
-14.1 -8.7 0
-14.1 -8.4 0
-14.1 -8.1 0
-14.1 -7.8 0
-14.1 -7.5 0
-14.1 -7.2 0
-14.1 -6.9 0
-14.1 -6.6 0
-14.1 -6.3 0
-14.1 -6 0
-14.1 -5.7 0
-14.1 -5.4 0
-14.1 -5.1 0
-14.1 -4.8 0
-14.1 -4.5 0
-14.1 -4.2 0
-14.1 -3.9 0
-14.1 -3.6 0
-14.1 -3.3 0
-14.1 -3 0
-14.1 -2.7 0
-14.1 -2.4 0
-14.1 -2.1 0
-14.1 -1.8 0
-14.1 -1.5 0
-14.1 -1.2 0
-14.1 -0.9 0
-14.1 -0.6 0
-14.1 -0.3 0
-14.1 0 0
-14.1 0.3 0
-14.1 0.6 0
-14.1 0.9 0
-14.1 1.2 0
-14.1 1.5 0
-14.1 1.8 0
-14.1 2.1 0
-14.1 2.4 0
-14.1 2.7 0
-14.1 3 0
-14.1 3.3 0
-14.1 3.6 0
-14.1 3.9 0
-14.1 4.2 0
-14.1 4.5 0
-14.1 4.8 0
-14.1 5.1 0
-14.1 5.4 0
-14.1 5.7 0
-14.1 6 0
-14.1 6.3 0
-14.1 6.6 0
-14.1 6.9 0
-14.1 7.2 0
-14.1 7.5 0
-14.1 7.8 0
-14.1 8.1 0
-14.1 8.4 0
-14.1 8.7 0
-14.1 9 0
-14.1 9.3 0
-14.1 9.6 0
-14.1 9.9 0
-14.1 10.2 0
-14.1 10.5 0
-14.1 10.8 0
-14.1 11.1 0
-14.1 11.4 0
-14.1 11.7 0
-14.1 12 0
-14.1 12.3 0
-14.1 12.6 0
-14.1 12.9 0
-14.1 13.2 0
-14.1 13.5 0
-14.1 13.8 0
-14.1 14.1 0
-14.1 14.4 0
-14.1 14.7 0
-14.1 15 0
-13.8 -15 0
-13.8 -14.7 0
-13.8 -14.4 0
-13.8 -14.1 0
-13.8 -13.8 0
-13.8 -13.5 0
-13.8 -13.2 0
-13.8 -12.9 0
-13.8 -12.6 0
-13.8 -12.3 0
-13.8 -12 0
-13.8 -11.7 0
-13.8 -11.4 0
-13.8 -11.1 0
-13.8 -10.8 0
-13.8 -10.5 0
-13.8 -10.2 0
-13.8 -9.9 0
-13.8 -9.6 0
-13.8 -9.3 0
-13.8 -9 0
-13.8 -8.7 0
-13.8 -8.4 0
-13.8 -8.1 0
-13.8 -7.8 0
-13.8 -7.5 0
-13.8 -7.2 0
-13.8 -6.9 0
-13.8 -6.6 0
-13.8 -6.3 0
-13.8 -6 0
-13.8 -5.7 0
-13.8 -5.4 0
-13.8 -5.1 0
-13.8 -4.8 0
-13.8 -4.5 0
-13.8 -4.2 0
-13.8 -3.9 0
-13.8 -3.6 0
-13.8 -3.3 0
-13.8 -3 0
-13.8 -2.7 0
-13.8 -2.4 0
-13.8 -2.1 0
-13.8 -1.8 0
-13.8 -1.5 0
-13.8 -1.2 0
-13.8 -0.9 0
-13.8 -0.6 0
-13.8 -0.3 0
-13.8 0 0
-13.8 0.3 0
-13.8 0.6 0
-13.8 0.9 0
-13.8 1.2 0
-13.8 1.5 0
-13.8 1.8 0
-13.8 2.1 0
-13.8 2.4 0
-13.8 2.7 0
-13.8 3 0
-13.8 3.3 0
-13.8 3.6 0
-13.8 3.9 0
-13.8 4.2 0
-13.8 4.5 0
-13.8 4.8 0
-13.8 5.1 0
-13.8 5.4 0
-13.8 5.7 0
-13.8 6 0
-13.8 6.3 0
-13.8 6.6 0
-13.8 6.9 0
-13.8 7.2 0
-13.8 7.5 0
-13.8 7.8 0
-13.8 8.1 0
-13.8 8.4 0
-13.8 8.7 0
-13.8 9 0
-13.8 9.3 0
-13.8 9.6 0
-13.8 9.9 0
-13.8 10.2 0
-13.8 10.5 0
-13.8 10.8 0
-13.8 11.1 0
-13.8 11.4 0
-13.8 11.7 0
-13.8 12 0
-13.8 12.3 0
-13.8 12.6 0
-13.8 12.9 0
-13.8 13.2 0
-13.8 13.5 0
-13.8 13.8 0
-13.8 14.1 0
-13.8 14.4 0
-13.8 14.7 0
-13.8 15 0
-13.5 -15 0
-13.5 -14.7 0
-13.5 -14.4 0
-13.5 -14.1 0
-13.5 -13.8 0
-13.5 -13.5 0
-13.5 -13.2 0
-13.5 -12.9 0
-13.5 -12.6 0
-13.5 -12.3 0
-13.5 -12 0
-13.5 -11.7 0
-13.5 -11.4 0
-13.5 -11.1 0
-13.5 -10.8 0
-13.5 -10.5 0
-13.5 -10.2 0
-13.5 -9.9 0
-13.5 -9.6 0
-13.5 -9.3 0
-13.5 -9 0
-13.5 -8.7 0
-13.5 -8.4 0
-13.5 -8.1 0
-13.5 -7.8 0
-13.5 -7.5 0
-13.5 -7.2 0
-13.5 -6.9 0
-13.5 -6.6 0
-13.5 -6.3 0
-13.5 -6 0
-13.5 -5.7 0
-13.5 -5.4 0
-13.5 -5.1 0
-13.5 -4.8 0
-13.5 -4.5 0
-13.5 -4.2 0
-13.5 -3.9 0
-13.5 -3.6 0
-13.5 -3.3 0
-13.5 -3 0
-13.5 -2.7 0
-13.5 -2.4 0
-13.5 -2.1 0
-13.5 -1.8 0
-13.5 -1.5 0
-13.5 -1.2 0
-13.5 -0.9 0
-13.5 -0.6 0
-13.5 -0.3 0
-13.5 0 0
-13.5 0.3 0
-13.5 0.6 0
-13.5 0.9 0
-13.5 1.2 0
-13.5 1.5 0
-13.5 1.8 0
-13.5 2.1 0
-13.5 2.4 0
-13.5 2.7 0
-13.5 3 0
-13.5 3.3 0
-13.5 3.6 0
-13.5 3.9 0
-13.5 4.2 0
-13.5 4.5 0
-13.5 4.8 0
-13.5 5.1 0
-13.5 5.4 0
-13.5 5.7 0
-13.5 6 0
-13.5 6.3 0
-13.5 6.6 0
-13.5 6.9 0
-13.5 7.2 0
-13.5 7.5 0
-13.5 7.8 0
-13.5 8.1 0
-13.5 8.4 0
-13.5 8.7 0
-13.5 9 0
-13.5 9.3 0
-13.5 9.6 0
-13.5 9.9 0
-13.5 10.2 0
-13.5 10.5 0
-13.5 10.8 0
-13.5 11.1 0
-13.5 11.4 0
-13.5 11.7 0
-13.5 12 0
-13.5 12.3 0
-13.5 12.6 0
-13.5 12.9 0
-13.5 13.2 0
-13.5 13.5 0
-13.5 13.8 0
-13.5 14.1 0
-13.5 14.4 0
-13.5 14.7 0
-13.5 15 0
-13.2 -15 0
-13.2 -14.7 0
-13.2 -14.4 0
-13.2 -14.1 0
-13.2 -13.8 0
-13.2 -13.5 0
-13.2 -13.2 0
-13.2 -12.9 0
-13.2 -12.6 0
-13.2 -12.3 0
-13.2 -12 0
-13.2 -11.7 0
-13.2 -11.4 0
-13.2 -11.1 0
-13.2 -10.8 0
-13.2 -10.5 0
-13.2 -10.2 0
-13.2 -9.9 0
-13.2 -9.6 0
-13.2 -9.3 0
-13.2 -9 0
-13.2 -8.7 0
-13.2 -8.4 0
-13.2 -8.1 0
-13.2 -7.8 0
-13.2 -7.5 0
-13.2 -7.2 0
-13.2 -6.9 0
-13.2 -6.6 0
-13.2 -6.3 0
-13.2 -6 0
-13.2 -5.7 0
-13.2 -5.4 0
-13.2 -5.1 0
-13.2 -4.8 0
-13.2 -4.5 0
-13.2 -4.2 0
-13.2 -3.9 0
-13.2 -3.6 0
-13.2 -3.3 0
-13.2 -3 0
-13.2 -2.7 0
-13.2 -2.4 0
-13.2 -2.1 0
-13.2 -1.8 0
-13.2 -1.5 0
-13.2 -1.2 0
-13.2 -0.9 0
-13.2 -0.6 0
-13.2 -0.3 0
-13.2 0 0
-13.2 0.3 0
-13.2 0.6 0
-13.2 0.9 0
-13.2 1.2 0
-13.2 1.5 0
-13.2 1.8 0
-13.2 2.1 0
-13.2 2.4 0
-13.2 2.7 0
-13.2 3 0
-13.2 3.3 0
-13.2 3.6 0
-13.2 3.9 0
-13.2 4.2 0
-13.2 4.5 0
-13.2 4.8 0
-13.2 5.1 0
-13.2 5.4 0
-13.2 5.7 0
-13.2 6 0
-13.2 6.3 0
-13.2 6.6 0
-13.2 6.9 0
-13.2 7.2 0
-13.2 7.5 0
-13.2 7.8 0
-13.2 8.1 0
-13.2 8.4 0
-13.2 8.7 0
-13.2 9 0
-13.2 9.3 0
-13.2 9.6 0
-13.2 9.9 0
-13.2 10.2 0
-13.2 10.5 0
-13.2 10.8 0
-13.2 11.1 0
-13.2 11.4 0
-13.2 11.7 0
-13.2 12 0
-13.2 12.3 0
-13.2 12.6 0
-13.2 12.9 0
-13.2 13.2 0
-13.2 13.5 0
-13.2 13.8 0
-13.2 14.1 0
-13.2 14.4 0
-13.2 14.7 0
-13.2 15 0
-12.9 -15 0
-12.9 -14.7 0
-12.9 -14.4 0
-12.9 -14.1 0
-12.9 -13.8 0
-12.9 -13.5 0
-12.9 -13.2 0
-12.9 -12.9 0
-12.9 -12.6 0
-12.9 -12.3 0
-12.9 -12 0
-12.9 -11.7 0
-12.9 -11.4 0
-12.9 -11.1 0
-12.9 -10.8 0
-12.9 -10.5 0
-12.9 -10.2 0
-12.9 -9.9 0
-12.9 -9.6 0
-12.9 -9.3 0
-12.9 -9 0
-12.9 -8.7 0
-12.9 -8.4 0
-12.9 -8.1 0
-12.9 -7.8 0
-12.9 -7.5 0
-12.9 -7.2 0
-12.9 -6.9 0
-12.9 -6.6 0
-12.9 -6.3 0
-12.9 -6 0
-12.9 -5.7 0
-12.9 -5.4 0
-12.9 -5.1 0
-12.9 -4.8 0
-12.9 -4.5 0
-12.9 -4.2 0
-12.9 -3.9 0
-12.9 -3.6 0
-12.9 -3.3 0
-12.9 -3 0
-12.9 -2.7 0
-12.9 -2.4 0
-12.9 -2.1 0
-12.9 -1.8 0
-12.9 -1.5 0
-12.9 -1.2 0
-12.9 -0.9 0
-12.9 -0.6 0
-12.9 -0.3 0
-12.9 0 0
-12.9 0.3 0
-12.9 0.6 0
-12.9 0.9 0
-12.9 1.2 0
-12.9 1.5 0
-12.9 1.8 0
-12.9 2.1 0
-12.9 2.4 0
-12.9 2.7 0
-12.9 3 0
-12.9 3.3 0
-12.9 3.6 0
-12.9 3.9 0
-12.9 4.2 0
-12.9 4.5 0
-12.9 4.8 0
-12.9 5.1 0
-12.9 5.4 0
-12.9 5.7 0
-12.9 6 0
-12.9 6.3 0
-12.9 6.6 0
-12.9 6.9 0
-12.9 7.2 0
-12.9 7.5 0
-12.9 7.8 0
-12.9 8.1 0
-12.9 8.4 0
-12.9 8.7 0
-12.9 9 0
[...]
            <PointData>
                <DataArray type="Float64" Name="c1" format="ascii">
0.00278034 0.00278341 0.00279259 0.0028079 0.00282932 0.00285683 0.00289042 0.00293008 0.00297576 0.00302744 0.00308507 0.00314861 0.00321799 0.00329315 0.003374 0.00346044 0.00355237 0.00364964 0.00375211 0.0038596 0.00397193 0.00408887 0.00421017 0.00433556 0.00446472 0.00459731 0.00473295 0.00487123 0.0050117 0.00515387 0.00529721 0.00544116 0.00558512 0.00572846 0.0058705 0.00601056 0.00614792 0.00628184 0.00641158 0.00653638 0.00665549 0.00676817 0.0068737 0.00697139 0.00706057 0.00714064 0.00721103 0.00727125 0.00732089 0.00735957 0.00738705 0.00740312 0.0074077 0.00740077 0.00738243 0.00735283 0.00731224 0.00726098 0.00719948 0.00712821 0.00704772 0.00695862 0.00686155 0.00675719 0.00664627 0.00652953 0.0064077 0.00628155 0.00615183 0.00601929 0.00588465 0.00574861 0.00561187 0.00547508 0.00533886 0.0052038 0.00507047 0.00493938 0.00481103 0.00468585 0.00456428 0.00444669 0.00433343 0.00422482 0.00412116 0.0040227 0.00392967 0.00384229 0.00376074 0.00368519 0.00361578 0.00355264 0.00349588 0.00344559 0.00340186 0.00336474 0.0033343 0.00331058 0.00329362 0.00328343 0.00328003 
0.0027822 0.00278527 0.00279448 0.00280981 0.00283127 0.00285884 0.00289251 0.00293224 0.00297802 0.00302981 0.00308757 0.00315125 0.0032208 0.00329613 0.00337717 0.00346382 0.00355597 0.00365349 0.00375622 0.00386401 0.00397665 0.00409392 0.00421557 0.00434133 0.00447089 0.0046039 0.00473999 0.00487874 0.00501971 0.00516239 0.00530626 0.00545077 0.0055953 0.00573922 0.00588186 0.00602252 0.00616049 0.00629502 0.00642536 0.00655076 0.00667045 0.00678369 0.00688975 0.00698794 0.00707758 0.00715807 0.00722883 0.00728938 0.00733927 0.00737817 0.00740578 0.00742193 0.00742653 0.00741955 0.00740109 0.00737132 0.00733048 0.00727893 0.00721708 0.00714542 0.00706449 0.00697491 0.00687732 0.00677242 0.00666094 0.00654361 0.0064212 0.00629445 0.00616413 0.00603099 0.00589576 0.00575914 0.00562183 0.00548449 0.00534774 0.00521217 0.00507834 0.00494678 0.00481797 0.00469237 0.00457039 0.00445242 0.00433881 0.00422987 0.00412589 0.00402714 0.00393385 0.00384622 0.00376445 0.0036887 0.00361911 0.0035558 0.00349889 0.00344848 0.00340463 0.00336743 0.00333691 0.00331314 0.00329613 0.00328592 0.00328251 
0.00278777 0.00279085 0.00280012 0.00281555 0.00283714 0.00286488 0.00289875 0.00293874 0.00298481 0.00303693 0.00309507 0.00315918 0.00322919 0.00330505 0.00338666 0.00347394 0.00356677 0.00366503 0.00376857 0.00387722 0.00399078 0.00410905 0.00423176 0.00435865 0.00448941 0.0046237 0.00476113 0.00490129 0.00504373 0.00518795 0.00533343 0.0054796 0.00562584 0.00577152 0.00591595 0.00605843 0.00619823 0.0063346 0.00646676 0.00659395 0.00671538 0.00683031 0.00693798 0.00703767 0.00712871 0.00721047 0.00728236 0.00734387 0.00739456 0.00743407 0.00746212 0.00747851 0.00748314 0.00747601 0.00745721 0.0074269 0.00738535 0.00733291 0.00727001 0.00719714 0.00711489 0.00702385 0.00692472 0.00681819 0.00670501 0.00658593 0.00646173 0.00633319 0.00620106 0.00606612 0.00592911 0.00579075 0.00565174 0.00551273 0.00537437 0.00523725 0.00510194 0.00496896 0.0048388 0.00471192 0.00458873 0.00446962 0.00435494 0.00424499 0.00414009 0.00404047 0.00394638 0.00385802 0.00377558 0.00369921 0.00362907 0.00356527 0.00350792 0.00345712 0.00341295 0.00337547 0.00334473 0.00332078 0.00330365 0.00329336 0.00328993 
0.00279702 0.00280014 0.00280949 0.00282508 0.00284689 0.00287491 0.00290913 0.00294954 0.00299609 0.00304877 0.00310754 0.00317236 0.00324316 0.00331988 0.00340245 0.00349077 0.00358475 0.00368424 0.00378912 0.0038992 0.00401432 0.00413424 0.00425872 0.0043875 0.00452026 0.00465667 0.00479634 0.00493886 0.00508377 0.00523058 0.00537874 0.00552769 0.00567681 0.00582543 0.00597287 0.0061184 0.00626128 0.00640072 0.00653594 0.00666613 0.00679051 0.00690827 0.00701864 0.00712088 0.00721427 0.00729816 0.00737194 0.00743509 0.00748712 0.00752767 0.00755644 0.00757323 0.00757794 0.00757055 0.00755116 0.00751995 0.00747719 0.00742325 0.00735858 0.0072837 0.0071992 0.00710573 0.00700399 0.00689472 0.00677868 0.00665666 0.00652947 0.00639789 0.00626274 0.00612479 0.00598479 0.00584351 0.00570163 0.00555984 0.00541879 0.00527909 0.00514129 0.00500594 0.00487352 0.0047445 0.00461928 0.00449827 0.00438179 0.00427018 0.00416372 0.00406266 0.00396723 0.00387765 0.00379408 0.0037167 0.00364564 0.00358102 0.00352294 0.00347151 0.00342679 0.00338884 0.00335773 0.00333349 0.00331616 0.00330575 0.00330227 
0.00280992 0.00281308 0.00282257 0.00283837 0.00286049 0.00288891 0.00292362 0.0029646 0.00301184 0.0030653 0.00312495 0.00319075 0.00326265 0.00334059 0.0034245 0.00351428 0.00360985 0.00371107 0.00381782 0.00392992 0.00404721 0.00416945 0.00429642 0.00442785 0.00456342 0.00470281 0.00484563 0.00499146 0.00513985 0.00529029 0.00544224 0.00559511 0.00574827 0.00590106 0.00605274 0.00620259 0.00634982 0.00649362 0.00663317 0.00676764 0.00689618 0.00701796 0.00713217 0.00723802 0.00733476 0.00742169 0.00749817 0.00756362 0.00761757 0.0076596 0.0076894 0.00770676 0.00771157 0.00770381 0.00768359 0.00765109 0.00760661 0.00755055 0.00748336 0.00740561 0.00731793 0.00722099 0.00711555 0.00700238 0.00688228 0.0067561 0.00662466 0.0064888 0.00634935 0.00620713 0.00606293 0.00591751 0.00577159 0.00562589 0.00548105 0.00533769 0.0051964 0.0050577 0.00492211 0.00479008 0.00466202 0.00453833 0.00441935 0.00430539 0.00419674 0.00409366 0.00399637 0.00390506 0.00381993 0.00374112 0.00366877 0.003603 0.0035439 0.00349158 0.00344609 0.00340751 0.00337587 0.00335123 0.0033336 0.00332302 0.00331949 
0.00282643 0.00282964 0.00283929 0.00285538 0.00287788 0.00290681 0.00294215 0.00298388 0.00303198 0.00308644 0.00314723 0.0032143 0.00328761 0.00336711 0.00345274 0.00354441 0.00364202 0.00374547 0.00385462 0.00396932 0.00408939 0.00421463 0.00434481 0.00447965 0.00461885 0.00476208 0.00490897 0.00505909 0.00521197 0.00536712 0.00552398 0.00568194 0.00584036 0.00599855 0.00615577 0.00631123 0.00646413 0.00661363 0.00675884 0.00689889 0.00703289 0.00715994 0.00727919 0.00738977 0.0074909 0.00758182 0.00766183 0.00773033 0.00778679 0.00783077 0.00786192 0.00788003 0.00788497 0.00787673 0.00785541 0.00782123 0.00777449 0.00771562 0.00764512 0.00756361 0.00747174 0.00737027 0.00725997 0.00714169 0.00701629 0.00688465 0.00674766 0.00660621 0.00646117 0.00631339 0.0061637 0.0060129 0.00586174 0.00571094 0.00556118 0.0054131 0.00526728 0.00512426 0.00498456 0.00484864 0.00471691 0.00458976 0.00446754 0.00435056 0.00423911 0.00413342 0.00403372 0.0039402 0.00385305 0.0037724 0.0036984 0.00363114 0.00357074 0.00351727 0.0034708 0.00343139 0.00339908 0.00337392 0.00335592 0.00334512 0.00334152 
0.00284647 0.00284975 0.00285961 0.00287603 0.00289901 0.00292856 0.00296466 0.0030073 0.00305646 0.00311214 0.0031743 0.00324292 0.00331796 0.00339937 0.0034871 0.00358106 0.00368118 0.00378734 0.00389944 0.00401732 0.00414081 0.00426971 0.00440381 0.00454284 0.0046865 0.00483446 0.00498634 0.00514174 0.00530017 0.00546112 0.00562403 0.00578829 0.00595322 0.0061181 0.00628218 0.00644462 0.00660458 0.00676116 0.00691343 0.00706046 0.00720127 0.00733492 0.00746047 0.00757699 0.00768363 0.00777955 0.007864 0.00793632 0.00799593 0.00804235 0.00807521 0.00809426 0.00809936 0.00809051 0.00806781 0.0080315 0.00798193 0.00791954 0.0078449 0.00775865 0.00766154 0.00755437 0.007438 0.00731333 0.00718129 0.00704285 0.00689894 0.00675052 0.00659851 0.00644383 0.00628733 0.00612986 0.0059722 0.00581511 0.00565927 0.00550535 0.00535394 0.0052056 0.00506085 0.00492014 0.0047839 0.00465251 0.00452632 0.00440563 0.00429073 0.00418184 0.0040792 0.00398298 0.00389335 0.00381046 0.00373444 0.00366537 0.00360337 0.0035485 0.00350083 0.00346041 0.00342728 0.00340148 0.00338304 0.00337196 0.00336827 
0.00286997 0.00287333 0.00288343 0.00290025 0.0029238 0.00295407 0.00299106 0.00303477 0.00308519 0.0031423 0.00320609 0.00327654 0.00335361 0.00343727 0.00352747 0.00362414 0.00372722 0.0038366 0.00395217 0.00407381 0.00420135 0.0043346 0.00447335 0.00461734 0.0047663 0.00491988 0.00507772 0.00523939 0.00540443 0.00557232 0.00574247 0.00591426 0.006087 0.00625993 0.00643226 0.00660311 0.00677159 0.00693673 0.00709755 0.00725303 0.00740212 0.00754378 0.007677 0.00780075 0.00791409 0.00801611 0.00810598 0.00818297 0.00824642 0.00829582 0.00833075 0.00835095 0.00835625 0.00834665 0.00832227 0.00828337 0.00823032 0.00816364 0.00808393 0.00799193 0.00788843 0.00777432 0.00765056 0.00751812 0.00737803 0.00723133 0.00707904 0.0069222 0.00676178 0.00659877 0.00643408 0.0062686 0.00610314 0.0059385 0.00577539 0.00561449 0.00545641 0.00530172 0.00515094 0.00500453 0.00486292 0.00472649 0.00459559 0.0044705 0.00435151 0.00423884 0.00413271 0.00403329 0.00394074 0.0038552 0.00377678 0.00370558 0.00364168 0.00358516 0.00353607 0.00349446 0.00346037 0.00343382 0.00341484 0.00340345 0.00339965 
0.00289683 0.00290029 0.00291066 0.00292794 0.00295213 0.00298324 0.00302127 0.00306621 0.00311806 0.00317682 0.00324249 0.00331503 0.00339445 0.00348069 0.00357374 0.00367354 0.00378002 0.00389311 0.0040127 0.00413868 0.0042709 0.00440917 0.00455331 0.00470307 0.00485816 0.00501827 0.00518303 0.00535202 0.00552477 0.00570075 0.00587938 0.00605999 0.00624189 0.00642428 0.00660632 0.0067871 0.00696565 0.00714094 0.0073119 0.00747741 0.00763636 0.00778758 0.00792994 0.00806233 0.00818369 0.008293 0.00838936 0.00847192 0.00853998 0.00859295 0.00863036 0.00865192 0.00865745 0.00864695 0.00862055 0.00857854 0.00852134 0.00844951 0.00836374 0.00826484 0.0081537 0.00803131 0.00789873 0.00775703 0.00760736 0.00745085 0.00728862 0.0071218 0.00695144 0.0067786 0.00660426 0.00642934 0.00625473 0.00608124 0.00590961 0.00574054 0.00557467 0.00541258 0.00525478 0.00510174 0.0049539 0.00481162 0.00467524 0.00454506 0.00442133 0.00430429 0.00419412 0.004091 0.00399508 0.00390647 0.00382529 0.00375163 0.00368555 0.00362713 0.00357641 0.00353343 0.00349822 0.00347081 0.00345122 0.00343947 0.00343555 
0.00292696 0.00293052 0.0029412 0.00295899 0.00298392 0.00301597 0.00305516 0.00310148 0.00315496 0.00321558 0.00328336 0.00335827 0.00344033 0.00352951 0.00362578 0.00372911 0.00383945 0.00395674 0.00408088 0.00421179 0.00434931 0.0044933 0.00464357 0.00479988 0.00496198 0.00512954 0.00530221 0.00547958 0.00566117 0.00584644 0.00603481 0.0062256 0.00641807 0.00661141 0.00680472 0.00699703 0.00718731 0.00737444 0.00755726 0.00773455 0.00790506 0.00806752 0.00822065 0.00836323 0.00849404 0.00861198 0.00871599 0.00880514 0.00887864 0.00893582 0.00897616 0.00899933 0.00900513 0.00899355 0.00896475 0.00891906 0.00885694 0.00877902 0.0086861 0.00857905 0.0084589 0.00832675 0.00818377 0.0080312 0.00787028 0.00770227 0.00752842 0.00734994 0.007168 0.00698373 0.00679818 0.00661235 0.00642715 0.00624343 0.00606199 0.00588354 0.00570873 0.00553814 0.0053723 0.00521169 0.00505672 0.00490777 0.00476515 0.00462916 0.00450005 0.00437803 0.00426328 0.00415597 0.00405621 0.00396414 0.00387984 0.00380338 0.00373484 0.00367427 0.0036217 0.00357717 0.0035407 0.00351232 0.00349204 0.00347987 0.00347581 
0.00296023 0.0029639 0.00297492 0.00299329 0.00301902 0.00305212 0.0030926 0.00314047 0.00319575 0.00325844 0.00332856 0.00340612 0.00349112 0.00358355 0.00368342 0.00379069 0.00390534 0.00402731 0.00415655 0.00429296 0.00443643 0.00458682 0.00474397 0.00490765 0.00507761 0.00525357 0.00543516 0.00562199 0.00581358 0.00600939 0.00620883 0.0064112 0.00661574 0.00682159 0.00702782 0.00723338 0.00743718 0.00763799 0.00783454 0.00802549 0.00820945 0.00838499 0.0085507 0.00870516 0.00884704 0.00897506 0.00908802 0.0091849 0.00926476 0.00932686 0.00937062 0.00939565 0.00940175 0.0093889 0.00935729 0.00930726 0.00923938 0.00915434 0.00905302 0.00893645 0.00880576 0.00866221 0.00850712 0.00834187 0.00816788 0.00798653 0.00779922 0.00760729 0.00741201 0.0072146 0.0070162 0.00681786 0.00662057 0.00642521 0.00623261 0.00604349 0.00585854 0.00567834 0.00550342 0.00533425 0.00517125 0.00501478 0.00486516 0.00472265 0.0045875 0.0044599 0.00434002 0.00422801 0.00412398 0.00402803 0.00394023 0.00386067 0.00378938 0.0037264 0.00367177 0.00362551 0.00358765 0.00355818 0.00353713 0.0035245 0.00352029 
0.00299649 0.00300029 0.00301169 0.00303069 0.00305731 0.00309156 0.00313345 0.00318302 0.00324027 0.00330524 0.00337794 0.0034584 0.00354663 0.00364266 0.00374648 0.00385809 0.00397749 0.00410464 0.00423949 0.00438199 0.00453205 0.00468954 0.00485431 0.00502617 0.0052049 0.0053902 0.00558175 0.00577915 0.00598193 0.00618958 0.00640146 0.00661688 0.00683505 0.00705508 0.00727598 0.00749665 0.00771588 0.00793236 0.0081447 0.00835138 0.00855087 0.00874156 0.00892183 0.0090901 0.00924482 0.00938455 0.00950793 0.00961377 0.00970102 0.00976883 0.00981655 0.00984374 0.00985016 0.00983581 0.0098009 0.00974584 0.00967123 0.0095779 0.00946683 0.00933918 0.00919625 0.00903948 0.00887036 0.00869046 0.00850137 0.00830468 0.00810192 0.00789457 0.00768404 0.00747166 0.00725864 0.00704613 0.00683515 0.00662665 0.00642147 0.00622038 0.00602405 0.00583308 0.005648 0.00546928 0.00529733 0.0051325 0.00497508 0.00482533 0.00468348 0.0045497 0.00442414 0.00430693 0.00419817 0.00409793 0.00400629 0.00392329 0.00384896 0.00378335 0.00372645 0.00367829 0.00363888 0.00360823 0.00358633 0.00357319 0.00356881 
0.00303562 0.00303955 0.00305136 0.00307105 0.00309863 0.00313412 0.00317756 0.00322896 0.00328836 0.0033558 0.00343131 0.00351493 0.00360669 0.00370662 0.00381476 0.00393111 0.00405569 0.00418849 0.0043295 0.00447867 0.00463594 0.00480122 0.00497437 0.00515524 0.00534361 0.00553924 0.00574179 0.0059509 0.00616612 0.00638692 0.00661267 0.00684269 0.00707614 0.00731211 0.00754955 0.0077873 0.00802406 0.00825839 0.00848875 0.00871348 0.00893081 0.00913893 0.009336 0.00952021 0.00968978 0.00984306 0.00997848 0.0100947 0.0101905 0.0102649 0.0103172 0.0103468 0.0103536 0.0103374 0.0102987 0.0102378 0.0101554 0.0100524 0.00993009 0.00978963 0.00963256 0.00946052 0.00927522 0.00907847 0.00887207 0.00865781 0.0084374 0.00821251 0.00798467 0.00775534 0.00752584 0.00729738 0.00707104 0.00684782 0.00662859 0.00641414 0.00620514 0.00600222 0.00580588 0.0056166 0.00543476 0.00526069 0.00509468 0.00493697 0.00478775 0.00464719 0.0045154 0.0043925 0.00427856 0.00417364 0.00407779 0.00399103 0.0039134 0.00384489 0.00378553 0.0037353 0.00369421 0.00366225 0.00363943 0.00362574 0.00362117 
0.00307744 0.00308152 0.00309376 0.00311419 0.0031428 0.00317964 0.00322474 0.00327812 0.00333984 0.00340995 0.00348848 0.00357551 0.00367107 0.00377523 0.00388803 0.00400951 0.0041397 0.00427864 0.00442632 0.00458273 0.00474785 0.0049216 0.00510389 0.00529459 0.00549351 0.00570044 0.00591507 0.00613706 0.00636597 0.00660129 0.00684241 0.00708861 0.00733908 0.00759285 0.00784884 0.0081058 0.00836234 0.00861691 0.00886777 0.00911308 0.00935084 0.00957897 0.00979537 0.00999792 0.0101846 0.0103535 0.0105028 0.0106309 0.0107366 0.0108185 0.010876 0.0109084 0.0109155 0.0108973 0.0108541 0.0107864 0.010695 0.010581 0.0104457 0.0102904 0.0101171 0.00992747 0.0097236 0.00950754 0.00928134 0.00904705 0.0088066 0.00856184 0.00831448 0.00806608 0.00781809 0.00757178 0.00732832 0.00708872 0.00685391 0.00662466 0.00640169 0.00618558 0.00597686 0.00577597 0.00558328 0.00539911 0.00522372 0.00505731 0.00490006 0.0047521 0.00461354 0.00448445 0.00436489 0.00425489 0.00415448 0.00406366 0.00398244 0.00391082 0.00384878 0.00379631 0.0037534 0.00372004 0.00369622 0.00368194 0.00367717 
0.00312177 0.00312601 0.00313872 0.00315993 0.00318966 0.00322793 0.0032748 0.0033303 0.0033945 0.00346745 0.00354923 0.00363991 0.00373955 0.00384824 0.00396604 0.00409303 0.00422926 0.00437479 0.00452965 0.00469388 0.00486746 0.00505037 0.00524255 0.00544391 0.00565429 0.00587351 0.0061013 0.00633735 0.00658124 0.00683249 0.00709051 0.00735457 0.00762386 0.0078974 0.00817406 0.00845252 0.0087313 0.0090087 0.00928281 0.00955155 0.00981265 0.0100637 0.0103023 0.0105259 0.0107322 0.010919 0.0110843 0.0112262 0.011343 0.0114336 0.011497 0.0115325 0.01154 0.0115193 0.0114709 0.0113954 0.0112937 0.011167 0.0110167 0.0108445 0.0106524 0.0104426 0.0102175 0.00997934 0.00973059 0.00947355 0.00921042 0.00894326 0.00867395 0.00840422 0.00813559 0.00786945 0.007607 0.00734931 0.0070973 0.00685179 0.00661347 0.00638293 0.00616067 0.00594711 0.00574262 0.00554746 0.00536187 0.00518604 0.00502009 0.00486414 0.00471826 0.0045825 0.00445688 0.00434141 0.00423609 0.00414091 0.00405584 0.00398086 0.00391595 0.00386108 0.00381623 0.00378136 0.00375648 0.00374155 0.00373657 
0.00316843 0.00317283 0.00318605 0.00320809 0.00323899 0.00327879 0.00332754 0.00338529 0.00345212 0.0035281 0.00361333 0.00370789 0.00381187 0.00392538 0.00404852 0.00418138 0.00432405 0.00447663 0.00463919 0.00481178 0.00499444 0.00518719 0.00539001 0.00560284 0.00582558 0.00605809 0.00630013 0.00655143 0.00681162 0.00708024 0.00735673 0.00764038 0.00793038 0.00822575 0.00852532 0.00882773 0.0091314 0.00943448 0.00973489 0.0100302 0.010318 0.0105952 0.0108592 0.0111069 0.0113358 0.0115432 0.0117268 0.0118844 0.0120141 0.0121146 0.0121846 0.0122236 0.0122312 0.0122076 0.0121533 0.0120689 0.0119553 0.011814 0.0116465 0.0114549 0.0112413 0.0110084 0.0107589 0.0104956 0.0102212 0.00993839 0.00964969 0.00935737 0.00906353 0.00877002 0.0084785 0.00819041 0.00790702 0.00762943 0.00735857 0.00709527 0.0068402 0.00659394 0.00635698 0.00612969 0.00591241 0.00570537 0.00550879 0.0053228 0.00514751 0.00498297 0.00482924 0.00468632 0.00455421 0.00443289 0.00432233 0.00422248 0.0041333 0.00405475 0.00398678 0.00392935 0.00388242 0.00384596 0.00381993 0.00380433 0.00379913 
0.00321722 0.00322179 0.00323553 0.00325846 0.0032906 0.003332 0.00338273 0.00344286 0.00351246 0.00359165 0.00368051 0.00377917 0.00388775 0.00400637 0.00413516 0.00427424 0.00442376 0.00458383 0.00475456 0.00493606 0.0051284 0.00533166 0.00554585 0.00577097 0.00600697 0.00625374 0.00651113 0.00677889 0.0070567 0.00734415 0.00764071 0.00794572 0.00825838 0.00857772 0.00890257 0.00923153 0.00956294 0.00989483 0.0102249 0.0105505 0.0108685 0.0111758 0.0114688 0.0117443 0.0119989 0.0122299 0.0124344 0.01261 0.0127545 0.012866 0.0129435 0.0129862 0.0129939 0.0129669 0.0129057 0.012811 0.0126839 0.012526 0.0123389 0.0121249 0.0118868 0.0116274 0.01135 0.011058 0.0107545 0.0104426 0.0101251 0.00980466 0.00948349 0.00916361 0.00884679 0.00853455 0.00822819 0.00792883 0.00763742 0.00735476 0.00708152 0.00681825 0.00656538 0.00632329 0.00609224 0.00587245 0.00566408 0.00546721 0.00528191 0.00510821 0.0049461 0.00479556 0.00465654 0.004529 0.00441286 0.00430806 0.00421452 0.00413219 0.00406098 0.00400084 0.00395171 0.00391355 0.00388633 0.00387 0.00386456 
0.00326791 0.00327267 0.00328697 0.00331081 0.00334425 0.00338733 0.00344014 0.00350276 0.00357528 0.00365782 0.00375051 0.00385349 0.00396689 0.00409089 0.00422563 0.00437128 0.00452802 0.004696 0.00487538 0.00506631 0.00526892 0.00548332 0.0057096 0.00594781 0.00619795 0.00645997 0.00673378 0.0070192 0.00731595 0.0076237 0.00794195 0.00827011 0.00860743 0.00895295 0.00930554 0.00966379 0.010026 0.0103901 0.0107536 0.0111134 0.0114661 0.0118078 0.0121341 0.0124412 0.0127253 0.012983 0.0132115 0.0134078 0.0135691 0.0136933 0.0137789 0.0138255 0.013833 0.0138019 0.0137327 0.0136264 0.0134841 0.0133072 0.0130978 0.0128583 0.0125919 0.0123022 0.0119929 0.0116682 0.0113317 0.0109869 0.0106373 0.0102854 0.00993393 0.00958495 0.00924032 0.00890161 0.00857018 0.00824714 0.00793342 0.00762982 0.00733696 0.00705535 0.00678541 0.00652743 0.00628165 0.00604823 0.00582726 0.0056188 0.00542286 0.00523942 0.00506843 0.00490981 0.00476348 0.00462936 0.00450734 0.00439731 0.00429918 0.00421285 0.00413823 0.00407523 0.0040238 0.00398386 0.00395536 0.00393828 0.00393259 