<?xml version="1.0"?>
<VTKFile type="StructuredGrid" version="0.1">
    <StructuredGrid WholeExtent="0 100 0 100 0 0">
        <Piece Extent="0 100 0 100 0 0">
            <Points>
                <DataArray type="Float64" NumberOfComponents="3" format="ascii">
-15 -15 0
-15 -14.7 0
-15 -14.4 0
-15 -14.1 0
-15 -13.8 0
-15 -13.5 0
-15 -13.2 0
-15 -12.9 0
-15 -12.6 0
-15 -12.3 0
-15 -12 0
-15 -11.7 0
-15 -11.4 0
-15 -11.1 0
-15 -10.8 0
-15 -10.5 0
-15 -10.2 0
-15 -9.9 0
-15 -9.6 0
-15 -9.3 0
-15 -9 0
-15 -8.7 0
-15 -8.4 0
-15 -8.1 0
-15 -7.8 0
-15 -7.5 0
-15 -7.2 0
-15 -6.9 0
-15 -6.6 0
-15 -6.3 0
-15 -6 0
-15 -5.7 0
-15 -5.4 0
-15 -5.1 0
-15 -4.8 0
-15 -4.5 0
-15 -4.2 0
-15 -3.9 0
-15 -3.6 0
-15 -3.3 0
-15 -3 0
-15 -2.7 0
-15 -2.4 0
-15 -2.1 0
-15 -1.8 0
-15 -1.5 0
-15 -1.2 0
-15 -0.9 0
-15 -0.6 0
-15 -0.3 0
-15 0 0
-15 0.3 0
-15 0.6 0
-15 0.9 0
-15 1.2 0
-15 1.5 0
-15 1.8 0
-15 2.1 0
-15 2.4 0
-15 2.7 0
-15 3 0
-15 3.3 0
-15 3.6 0
-15 3.9 0
-15 4.2 0
-15 4.5 0
-15 4.8 0
-15 5.1 0
-15 5.4 0
-15 5.7 0
-15 6 0
-15 6.3 0
-15 6.6 0
-15 6.9 0
-15 7.2 0
-15 7.5 0
-15 7.8 0
-15 8.1 0
-15 8.4 0
-15 8.7 0
-15 9 0
-15 9.3 0
-15 9.6 0
-15 9.9 0
-15 10.2 0
-15 10.5 0
-15 10.8 0
-15 11.1 0
-15 11.4 0
-15 11.7 0
-15 12 0
-15 12.3 0
-15 12.6 0
-15 12.9 0
-15 13.2 0
-15 13.5 0
-15 13.8 0
-15 14.1 0
-15 14.4 0
-15 14.7 0
-15 15 0
-14.7 -15 0
-14.7 -14.7 0
-14.7 -14.4 0
-14.7 -14.1 0
-14.7 -13.8 0
-14.7 -13.5 0
-14.7 -13.2 0
-14.7 -12.9 0
-14.7 -12.6 0
-14.7 -12.3 0
-14.7 -12 0
-14.7 -11.7 0
-14.7 -11.4 0
-14.7 -11.1 0
-14.7 -10.8 0
-14.7 -10.5 0
-14.7 -10.2 0
-14.7 -9.9 0
-14.7 -9.6 0
-14.7 -9.3 0
-14.7 -9 0
-14.7 -8.7 0
-14.7 -8.4 0
-14.7 -8.1 0
-14.7 -7.8 0
-14.7 -7.5 0
-14.7 -7.2 0
-14.7 -6.9 0
-14.7 -6.6 0
-14.7 -6.3 0
-14.7 -6 0
-14.7 -5.7 0
-14.7 -5.4 0
-14.7 -5.1 0
-14.7 -4.8 0
-14.7 -4.5 0
-14.7 -4.2 0
-14.7 -3.9 0
-14.7 -3.6 0
-14.7 -3.3 0
-14.7 -3 0
-14.7 -2.7 0
-14.7 -2.4 0
-14.7 -2.1 0
-14.7 -1.8 0
-14.7 -1.5 0
-14.7 -1.2 0
-14.7 -0.9 0
-14.7 -0.6 0
-14.7 -0.3 0
-14.7 0 0
-14.7 0.3 0
-14.7 0.6 0
-14.7 0.9 0
-14.7 1.2 0
-14.7 1.5 0
-14.7 1.8 0
-14.7 2.1 0
-14.7 2.4 0
-14.7 2.7 0
-14.7 3 0
-14.7 3.3 0
-14.7 3.6 0
-14.7 3.9 0
-14.7 4.2 0
-14.7 4.5 0
-14.7 4.8 0
-14.7 5.1 0
-14.7 5.4 0
-14.7 5.7 0
-14.7 6 0
-14.7 6.3 0
-14.7 6.6 0
-14.7 6.9 0
-14.7 7.2 0
-14.7 7.5 0
-14.7 7.8 0
-14.7 8.1 0
-14.7 8.4 0
-14.7 8.7 0
-14.7 9 0
-14.7 9.3 0
-14.7 9.6 0
-14.7 9.9 0
-14.7 10.2 0
-14.7 10.5 0
-14.7 10.8 0
-14.7 11.1 0
-14.7 11.4 0
-14.7 11.7 0
-14.7 12 0
-14.7 12.3 0
-14.7 12.6 0
-14.7 12.9 0
-14.7 13.2 0
-14.7 13.5 0
-14.7 13.8 0
-14.7 14.1 0
-14.7 14.4 0
-14.7 14.7 0
-14.7 15 0
-14.4 -15 0
-14.4 -14.7 0
-14.4 -14.4 0
-14.4 -14.1 0
-14.4 -13.8 0
-14.4 -13.5 0
-14.4 -13.2 0
-14.4 -12.9 0
-14.4 -12.6 0
-14.4 -12.3 0
-14.4 -12 0
-14.4 -11.7 0
-14.4 -11.4 0
-14.4 -11.1 0
-14.4 -10.8 0
-14.4 -10.5 0
-14.4 -10.2 0
-14.4 -9.9 0
-14.4 -9.6 0
-14.4 -9.3 0
-14.4 -9 0
-14.4 -8.7 0
-14.4 -8.4 0
-14.4 -8.1 0
-14.4 -7.8 0
-14.4 -7.5 0
-14.4 -7.2 0
-14.4 -6.9 0
-14.4 -6.6 0
-14.4 -6.3 0
-14.4 -6 0
-14.4 -5.7 0
-14.4 -5.4 0
-14.4 -5.1 0
-14.4 -4.8 0
-14.4 -4.5 0
-14.4 -4.2 0
-14.4 -3.9 0
-14.4 -3.6 0
-14.4 -3.3 0
-14.4 -3 0
-14.4 -2.7 0
-14.4 -2.4 0
-14.4 -2.1 0
-14.4 -1.8 0
-14.4 -1.5 0
-14.4 -1.2 0
-14.4 -0.9 0
-14.4 -0.6 0
-14.4 -0.3 0
-14.4 0 0
-14.4 0.3 0
-14.4 0.6 0
-14.4 0.9 0
-14.4 1.2 0
-14.4 1.5 0
-14.4 1.8 0
-14.4 2.1 0
-14.4 2.4 0
-14.4 2.7 0
-14.4 3 0
-14.4 3.3 0
-14.4 3.6 0
-14.4 3.9 0
-14.4 4.2 0
-14.4 4.5 0
-14.4 4.8 0
-14.4 5.1 0
-14.4 5.4 0
-14.4 5.7 0
-14.4 6 0
-14.4 6.3 0
-14.4 6.6 0
-14.4 6.9 0
-14.4 7.2 0
-14.4 7.5 0
-14.4 7.8 0
-14.4 8.1 0
-14.4 8.4 0
-14.4 8.7 0
-14.4 9 0
-14.4 9.3 0
-14.4 9.6 0
-14.4 9.9 0
-14.4 10.2 0
-14.4 10.5 0
-14.4 10.8 0
-14.4 11.1 0
-14.4 11.4 0
-14.4 11.7 0
-14.4 12 0
-14.4 12.3 0
-14.4 12.6 0
-14.4 12.9 0
-14.4 13.2 0
-14.4 13.5 0
-14.4 13.8 0
-14.4 14.1 0
-14.4 14.4 0
-14.4 14.7 0
-14.4 15 0
-14.1 -15 0
-14.1 -14.7 0
-14.1 -14.4 0
-14.1 -14.1 0
-14.1 -13.8 0
-14.1 -13.5 0
-14.1 -13.2 0
-14.1 -12.9 0
-14.1 -12.6 0
-14.1 -12.3 0
-14.1 -12 0
-14.1 -11.7 0
-14.1 -11.4 0
-14.1 -11.1 0
-14.1 -10.8 0
-14.1 -10.5 0
-14.1 -10.2 0
-14.1 -9.9 0
-14.1 -9.6 0
-14.1 -9.3 0
-14.1 -9 0
-14.1 -8.7 0
-14.1 -8.4 0
-14.1 -8.1 0
-14.1 -7.8 0
-14.1 -7.5 0
-14.1 -7.2 0
-14.1 -6.9 0
-14.1 -6.6 0
-14.1 -6.3 0
-14.1 -6 0
-14.1 -5.7 0
-14.1 -5.4 0
-14.1 -5.1 0
-14.1 -4.8 0
-14.1 -4.5 0
-14.1 -4.2 0
-14.1 -3.9 0
-14.1 -3.6 0
-14.1 -3.3 0
-14.1 -3 0
-14.1 -2.7 0
-14.1 -2.4 0
-14.1 -2.1 0
-14.1 -1.8 0
-14.1 -1.5 0
-14.1 -1.2 0
-14.1 -0.9 0
-14.1 -0.6 0
-14.1 -0.3 0
-14.1 0 0
-14.1 0.3 0
-14.1 0.6 0
-14.1 0.9 0
-14.1 1.2 0
-14.1 1.5 0
-14.1 1.8 0
-14.1 2.1 0
-14.1 2.4 0
-14.1 2.7 0
-14.1 3 0
-14.1 3.3 0
-14.1 3.6 0
-14.1 3.9 0
-14.1 4.2 0
-14.1 4.5 0
-14.1 4.8 0
-14.1 5.1 0
-14.1 5.4 0
-14.1 5.7 0
-14.1 6 0
-14.1 6.3 0
-14.1 6.6 0
-14.1 6.9 0
-14.1 7.2 0
-14.1 7.5 0
-14.1 7.8 0
-14.1 8.1 0
-14.1 8.4 0
-14.1 8.7 0
-14.1 9 0
-14.1 9.3 0
-14.1 9.6 0
-14.1 9.9 0
-14.1 10.2 0
-14.1 10.5 0
-14.1 10.8 0
-14.1 11.1 0
-14.1 11.4 0
-14.1 11.7 0
-14.1 12 0
-14.1 12.3 0
-14.1 12.6 0
-14.1 12.9 0
-14.1 13.2 0
-14.1 13.5 0
-14.1 13.8 0
-14.1 14.1 0
-14.1 14.4 0
-14.1 14.7 0
-14.1 15 0
-13.8 -15 0
-13.8 -14.7 0
-13.8 -14.4 0
-13.8 -14.1 0
-13.8 -13.8 0
-13.8 -13.5 0
-13.8 -13.2 0
-13.8 -12.9 0
-13.8 -12.6 0
-13.8 -12.3 0
-13.8 -12 0
-13.8 -11.7 0
-13.8 -11.4 0
-13.8 -11.1 0
-13.8 -10.8 0
-13.8 -10.5 0
-13.8 -10.2 0
-13.8 -9.9 0
-13.8 -9.6 0
-13.8 -9.3 0
-13.8 -9 0
-13.8 -8.7 0
-13.8 -8.4 0
-13.8 -8.1 0
-13.8 -7.8 0
-13.8 -7.5 0
-13.8 -7.2 0
-13.8 -6.9 0
-13.8 -6.6 0
-13.8 -6.3 0
-13.8 -6 0
-13.8 -5.7 0
-13.8 -5.4 0
-13.8 -5.1 0
-13.8 -4.8 0
-13.8 -4.5 0
-13.8 -4.2 0
-13.8 -3.9 0
-13.8 -3.6 0
-13.8 -3.3 0
-13.8 -3 0
-13.8 -2.7 0
-13.8 -2.4 0
-13.8 -2.1 0
-13.8 -1.8 0
-13.8 -1.5 0
-13.8 -1.2 0
-13.8 -0.9 0
-13.8 -0.6 0
-13.8 -0.3 0
-13.8 0 0
-13.8 0.3 0
-13.8 0.6 0
-13.8 0.9 0
-13.8 1.2 0
-13.8 1.5 0
-13.8 1.8 0
-13.8 2.1 0
-13.8 2.4 0
-13.8 2.7 0
-13.8 3 0
-13.8 3.3 0
-13.8 3.6 0
-13.8 3.9 0
-13.8 4.2 0
-13.8 4.5 0
-13.8 4.8 0
-13.8 5.1 0
-13.8 5.4 0
-13.8 5.7 0
-13.8 6 0
-13.8 6.3 0
-13.8 6.6 0
-13.8 6.9 0
-13.8 7.2 0
-13.8 7.5 0
-13.8 7.8 0
-13.8 8.1 0
-13.8 8.4 0
-13.8 8.7 0
-13.8 9 0
-13.8 9.3 0
-13.8 9.6 0
-13.8 9.9 0
-13.8 10.2 0
-13.8 10.5 0
-13.8 10.8 0
-13.8 11.1 0
-13.8 11.4 0
-13.8 11.7 0
-13.8 12 0
-13.8 12.3 0
-13.8 12.6 0
-13.8 12.9 0
-13.8 13.2 0
-13.8 13.5 0
-13.8 13.8 0
-13.8 14.1 0
-13.8 14.4 0
-13.8 14.7 0
-13.8 15 0
-13.5 -15 0
-13.5 -14.7 0
-13.5 -14.4 0
-13.5 -14.1 0
-13.5 -13.8 0
-13.5 -13.5 0
-13.5 -13.2 0
-13.5 -12.9 0
-13.5 -12.6 0
-13.5 -12.3 0
-13.5 -12 0
-13.5 -11.7 0
-13.5 -11.4 0
-13.5 -11.1 0
-13.5 -10.8 0
-13.5 -10.5 0
-13.5 -10.2 0
-13.5 -9.9 0
-13.5 -9.6 0
-13.5 -9.3 0
-13.5 -9 0
-13.5 -8.7 0
-13.5 -8.4 0
-13.5 -8.1 0
-13.5 -7.8 0
-13.5 -7.5 0
-13.5 -7.2 0
-13.5 -6.9 0
-13.5 -6.6 0
-13.5 -6.3 0
-13.5 -6 0
-13.5 -5.7 0
-13.5 -5.4 0
-13.5 -5.1 0
-13.5 -4.8 0
-13.5 -4.5 0
-13.5 -4.2 0
-13.5 -3.9 0
-13.5 -3.6 0
-13.5 -3.3 0
-13.5 -3 0
-13.5 -2.7 0
-13.5 -2.4 0
-13.5 -2.1 0
-13.5 -1.8 0
-13.5 -1.5 0
-13.5 -1.2 0
-13.5 -0.9 0
-13.5 -0.6 0
-13.5 -0.3 0
-13.5 0 0
-13.5 0.3 0
-13.5 0.6 0
-13.5 0.9 0
-13.5 1.2 0
-13.5 1.5 0
-13.5 1.8 0
-13.5 2.1 0
-13.5 2.4 0
-13.5 2.7 0
-13.5 3 0
-13.5 3.3 0
-13.5 3.6 0
-13.5 3.9 0
-13.5 4.2 0
-13.5 4.5 0
-13.5 4.8 0
-13.5 5.1 0
-13.5 5.4 0
-13.5 5.7 0
-13.5 6 0
-13.5 6.3 0
-13.5 6.6 0
-13.5 6.9 0
-13.5 7.2 0
-13.5 7.5 0
-13.5 7.8 0
-13.5 8.1 0
-13.5 8.4 0
-13.5 8.7 0
-13.5 9 0
-13.5 9.3 0
-13.5 9.6 0
-13.5 9.9 0
-13.5 10.2 0
-13.5 10.5 0
-13.5 10.8 0
-13.5 11.1 0
-13.5 11.4 0
-13.5 11.7 0
-13.5 12 0
-13.5 12.3 0
-13.5 12.6 0
-13.5 12.9 0
-13.5 13.2 0
-13.5 13.5 0
-13.5 13.8 0
-13.5 14.1 0
-13.5 14.4 0
-13.5 14.7 0
-13.5 15 0
-13.2 -15 0
-13.2 -14.7 0
-13.2 -14.4 0
-13.2 -14.1 0
-13.2 -13.8 0
-13.2 -13.5 0
-13.2 -13.2 0
-13.2 -12.9 0
-13.2 -12.6 0
-13.2 -12.3 0
-13.2 -12 0
-13.2 -11.7 0
-13.2 -11.4 0
-13.2 -11.1 0
-13.2 -10.8 0
-13.2 -10.5 0
-13.2 -10.2 0
-13.2 -9.9 0
-13.2 -9.6 0
-13.2 -9.3 0
-13.2 -9 0
-13.2 -8.7 0
-13.2 -8.4 0
-13.2 -8.1 0
-13.2 -7.8 0
-13.2 -7.5 0
-13.2 -7.2 0
-13.2 -6.9 0
-13.2 -6.6 0
-13.2 -6.3 0
-13.2 -6 0
-13.2 -5.7 0
-13.2 -5.4 0
-13.2 -5.1 0
-13.2 -4.8 0
-13.2 -4.5 0
-13.2 -4.2 0
-13.2 -3.9 0
-13.2 -3.6 0
-13.2 -3.3 0
-13.2 -3 0
-13.2 -2.7 0
-13.2 -2.4 0
-13.2 -2.1 0
-13.2 -1.8 0
-13.2 -1.5 0
-13.2 -1.2 0
-13.2 -0.9 0
-13.2 -0.6 0
-13.2 -0.3 0
-13.2 0 0
-13.2 0.3 0
-13.2 0.6 0
-13.2 0.9 0
-13.2 1.2 0
-13.2 1.5 0
-13.2 1.8 0
-13.2 2.1 0
-13.2 2.4 0
-13.2 2.7 0
-13.2 3 0
-13.2 3.3 0
-13.2 3.6 0
-13.2 3.9 0
-13.2 4.2 0
-13.2 4.5 0
-13.2 4.8 0
-13.2 5.1 0
-13.2 5.4 0
-13.2 5.7 0
-13.2 6 0
-13.2 6.3 0
-13.2 6.6 0
-13.2 6.9 0
-13.2 7.2 0
-13.2 7.5 0
-13.2 7.8 0
-13.2 8.1 0
-13.2 8.4 0
-13.2 8.7 0
-13.2 9 0
-13.2 9.3 0
-13.2 9.6 0
-13.2 9.9 0
-13.2 10.2 0
-13.2 10.5 0
-13.2 10.8 0
-13.2 11.1 0
-13.2 11.4 0
-13.2 11.7 0
-13.2 12 0
-13.2 12.3 0
-13.2 12.6 0
-13.2 12.9 0
-13.2 13.2 0
-13.2 13.5 0
-13.2 13.8 0
-13.2 14.1 0
-13.2 14.4 0
-13.2 14.7 0
-13.2 15 0
-12.9 -15 0
-12.9 -14.7 0
-12.9 -14.4 0
-12.9 -14.1 0
-12.9 -13.8 0
-12.9 -13.5 0
-12.9 -13.2 0
-12.9 -12.9 0
-12.9 -12.6 0
-12.9 -12.3 0
-12.9 -12 0
-12.9 -11.7 0
-12.9 -11.4 0
-12.9 -11.1 0
-12.9 -10.8 0
-12.9 -10.5 0
-12.9 -10.2 0
-12.9 -9.9 0
-12.9 -9.6 0
-12.9 -9.3 0
-12.9 -9 0
-12.9 -8.7 0
-12.9 -8.4 0
-12.9 -8.1 0
-12.9 -7.8 0
-12.9 -7.5 0
-12.9 -7.2 0
-12.9 -6.9 0
-12.9 -6.6 0
-12.9 -6.3 0
-12.9 -6 0
-12.9 -5.7 0
-12.9 -5.4 0
-12.9 -5.1 0
-12.9 -4.8 0
-12.9 -4.5 0
-12.9 -4.2 0
-12.9 -3.9 0
-12.9 -3.6 0
-12.9 -3.3 0
-12.9 -3 0
-12.9 -2.7 0
-12.9 -2.4 0
-12.9 -2.1 0
-12.9 -1.8 0
-12.9 -1.5 0
-12.9 -1.2 0
-12.9 -0.9 0
-12.9 -0.6 0
-12.9 -0.3 0
-12.9 0 0
-12.9 0.3 0
-12.9 0.6 0
-12.9 0.9 0
-12.9 1.2 0
-12.9 1.5 0
-12.9 1.8 0
-12.9 2.1 0
-12.9 2.4 0
-12.9 2.7 0
-12.9 3 0
-12.9 3.3 0
-12.9 3.6 0
-12.9 3.9 0
-12.9 4.2 0
-12.9 4.5 0
-12.9 4.8 0
-12.9 5.1 0
-12.9 5.4 0
-12.9 5.7 0
-12.9 6 0
-12.9 6.3 0
-12.9 6.6 0
-12.9 6.9 0
-12.9 7.2 0
-12.9 7.5 0
-12.9 7.8 0
-12.9 8.1 0
-12.9 8.4 0
-12.9 8.7 0
-12.9 9 0
[...]
            <PointData>
                <DataArray type="Float64" Name="c1" format="ascii">
0.00117799 0.00117915 0.00118264 0.00118844 0.00119655 0.00120696 0.00121965 0.0012346 0.00125179 0.0012712 0.00129279 0.00131653 0.00134237 0.00137027 0.00140018 0.00143204 0.00146577 0.00150132 0.0015386 0.00157753 0.001618 0.00165992 0.00170318 0.00174765 0.00179321 0.00183971 0.00188701 0.00193495 0.00198337 0.00203209 0.00208093 0.0021297 0.00217821 0.00222624 0.0022736 0.00232007 0.00236544 0.0024095 0.00245202 0.00249279 0.00253161 0.00256827 0.00260258 0.00263434 0.00266338 0.00268955 0.00271268 0.00273265 0.00274935 0.00276268 0.00277256 0.00277895 0.00278182 0.00278115 0.00277697 0.0027693 0.00275822 0.00274379 0.00272613 0.00270535 0.0026816 0.00265503 0.0026258 0.00259411 0.00256014 0.0025241 0.00248621 0.00244667 0.00240572 0.00236356 0.00232043 0.00227655 0.00223212 0.00218737 0.00214251 0.00209774 0.00205326 0.00200924 0.00196588 0.00192334 0.00188179 0.00184138 0.00180225 0.00176454 0.00172837 0.00169386 0.00166111 0.00163023 0.00160129 0.00157439 0.0015496 0.00152698 0.00150659 0.00148848 0.0014727 0.00145928 0.00144826 0.00143967 0.00143351 0.00142981 0.00142858 
0.00117893 0.0011801 0.00118359 0.0011894 0.00119753 0.00120796 0.00122068 0.00123567 0.00125291 0.00127237 0.00129401 0.00131781 0.00134371 0.00137168 0.00140167 0.00143361 0.00146744 0.00150308 0.00154047 0.0015795 0.00162009 0.00166214 0.00170552 0.00175013 0.00179583 0.00184248 0.00188994 0.00193804 0.00198662 0.00203551 0.00208453 0.00213347 0.00218216 0.00223038 0.00227792 0.00232457 0.00237013 0.00241436 0.00245705 0.002498 0.00253698 0.0025738 0.00260826 0.00264016 0.00266934 0.00269562 0.00271885 0.00273891 0.00275569 0.00276907 0.002779 0.00278542 0.00278829 0.00278762 0.00278341 0.0027757 0.00276456 0.00275006 0.00273231 0.00271143 0.00268756 0.00266085 0.00263149 0.00259965 0.00256552 0.00252932 0.00249126 0.00245155 0.00241041 0.00236808 0.00232477 0.0022807 0.0022361 0.00219117 0.00214614 0.00210119 0.00205654 0.00201236 0.00196885 0.00192616 0.00188446 0.00184392 0.00180466 0.00176682 0.00173053 0.00169591 0.00166306 0.00163208 0.00160306 0.00157608 0.00155121 0.00152853 0.00150808 0.00148992 0.00147409 0.00146064 0.00144959 0.00144097 0.00143479 0.00143109 0.00142985 
0.00118175 0.00118293 0.00118644 0.0011923 0.00120048 0.00121099 0.0012238 0.0012389 0.00125626 0.00127585 0.00129765 0.00132163 0.00134773 0.00137592 0.00140613 0.00143832 0.00147242 0.00150836 0.00154606 0.00158542 0.00162636 0.00166878 0.00171256 0.00175758 0.0018037 0.0018508 0.00189872 0.0019473 0.00199638 0.00204579 0.00209532 0.0021448 0.00219403 0.00224279 0.00229088 0.00233809 0.00238419 0.00242896 0.00247218 0.00251364 0.00255313 0.00259042 0.00262533 0.00265765 0.00268722 0.00271385 0.0027374 0.00275773 0.00277473 0.0027883 0.00279836 0.00280485 0.00280775 0.00280705 0.00280277 0.00279493 0.00278361 0.00276889 0.00275087 0.00272968 0.00270546 0.00267837 0.00264859 0.00261629 0.0025817 0.002545 0.00250642 0.00246619 0.00242452 0.00238164 0.00233778 0.00229317 0.00224803 0.00220257 0.00215701 0.00211155 0.00206639 0.00202173 0.00197774 0.00193461 0.00189248 0.00185151 0.00181186 0.00177365 0.00173702 0.00170207 0.00166891 0.00163764 0.00160836 0.00158114 0.00155605 0.00153317 0.00151254 0.00149422 0.00147826 0.0014647 0.00145355 0.00144486 0.00143864 0.0014349 0.00143365 
0.00118645 0.00118764 0.00119119 0.00119711 0.0012054 0.00121602 0.00122898 0.00124426 0.00126182 0.00128166 0.00130372 0.00132799 0.00135442 0.00138296 0.00141357 0.00144618 0.00148073 0.00151715 0.00155537 0.00159529 0.00163682 0.00167985 0.00172428 0.00176998 0.00181683 0.00186467 0.00191337 0.00196276 0.00201267 0.00206293 0.00211334 0.00216371 0.00221384 0.00226352 0.00231254 0.00236066 0.00240767 0.00245335 0.00249746 0.00253979 0.00258011 0.00261821 0.00265387 0.00268691 0.00271712 0.00274435 0.00276843 0.00278922 0.00280659 0.00282046 0.00283074 0.00283736 0.00284031 0.00283957 0.00283516 0.00282711 0.0028155 0.0028004 0.00278193 0.00276022 0.0027354 0.00270766 0.00267717 0.00264413 0.00260873 0.0025712 0.00253177 0.00249065 0.00244808 0.00240429 0.00235952 0.002314 0.00226794 0.00222159 0.00217515 0.00212883 0.00208284 0.00203736 0.00199259 0.00194869 0.00190584 0.00186418 0.00182387 0.00178504 0.00174782 0.00171232 0.00167865 0.00164691 0.00161718 0.00158956 0.0015641 0.00154089 0.00151997 0.00150139 0.00148521 0.00147145 0.00146015 0.00145134 0.00144503 0.00144124 0.00143998 
0.00119301 0.00119421 0.00119782 0.00120384 0.00121225 0.00122305 0.00123622 0.00125175 0.0012696 0.00128976 0.0013122 0.00133688 0.00136377 0.00139281 0.00142396 0.00145716 0.00149235 0.00152946 0.0015684 0.00160909 0.00165145 0.00169535 0.0017407 0.00178736 0.00183522 0.00188411 0.00193391 0.00198443 0.00203551 0.00208697 0.00213861 0.00219024 0.00224165 0.00229262 0.00234294 0.00239236 0.00244067 0.00248762 0.00253299 0.00257655 0.00261805 0.00265728 0.00269402 0.00272806 0.0027592 0.00278727 0.0028121 0.00283353 0.00285145 0.00286574 0.00287633 0.00288314 0.00288615 0.00288536 0.00288076 0.00287242 0.00286038 0.00284475 0.00282564 0.00280319 0.00277754 0.00274888 0.00271739 0.00268327 0.00264675 0.00260804 0.00256739 0.00252502 0.00248118 0.00243611 0.00239005 0.00234323 0.0022959 0.00224828 0.0022006 0.00215307 0.00210589 0.00205927 0.00201339 0.00196843 0.00192455 0.00188193 0.00184069 0.00180099 0.00176294 0.00172667 0.00169228 0.00165986 0.00162952 0.00160133 0.00157536 0.00155168 0.00153035 0.00151141 0.00149491 0.00148089 0.00146938 0.0014604 0.00145397 0.00145011 0.00144882 
0.00120141 0.00120264 0.00120632 0.00121246 0.00122104 0.00123206 0.0012455 0.00126135 0.00127957 0.00130016 0.00132308 0.00134829 0.00137576 0.00140545 0.0014373 0.00147126 0.00150727 0.00154526 0.00158514 0.00162683 0.00167025 0.00171528 0.00176181 0.00180972 0.00185888 0.00190913 0.00196034 0.00201233 0.00206493 0.00211795 0.00217119 0.00222445 0.00227752 0.00233017 0.00238217 0.00243329 0.00248328 0.00253191 0.00257891 0.00262406 0.00266711 0.00270782 0.00274596 0.00278131 0.00281367 0.00284284 0.00286865 0.00289093 0.00290955 0.0029244 0.00293539 0.00294245 0.00294555 0.00294468 0.00293985 0.00293111 0.00291853 0.0029022 0.00288225 0.00285883 0.00283209 0.00280222 0.00276942 0.00273391 0.00269592 0.00265568 0.00261343 0.00256943 0.00252394 0.00247719 0.00242945 0.00238096 0.00233197 0.00228271 0.00223341 0.0021843 0.00213559 0.00208748 0.00204017 0.00199383 0.00194863 0.00190475 0.00186232 0.00182148 0.00178237 0.0017451 0.00170978 0.0016765 0.00164536 0.00161644 0.00158981 0.00156553 0.00154366 0.00152426 0.00150735 0.00149299 0.0014812 0.001472 0.00146542 0.00146147 0.00146015 
0.00121163 0.00121289 0.00121666 0.00122295 0.00123174 0.00124303 0.0012568 0.00127304 0.00129172 0.00131283 0.00133633 0.00136219 0.00139039 0.00142086 0.00145357 0.00148846 0.00152548 0.00156454 0.00160557 0.0016485 0.00169322 0.00173963 0.00178762 0.00183706 0.00188782 0.00193975 0.0019927 0.0020465 0.00210097 0.00215592 0.00221114 0.00226642 0.00232154 0.00237627 0.00243036 0.00248358 0.00253566 0.00258635 0.0026354 0.00268253 0.0027275 0.00277005 0.00280994 0.00284693 0.0028808 0.00291135 0.00293838 0.00296172 0.00298122 0.00299677 0.00300827 0.00301564 0.00301885 0.00301788 0.00301276 0.00300352 0.00299026 0.00297306 0.00295207 0.00292743 0.00289933 0.00286796 0.00283353 0.00279628 0.00275645 0.0027143 0.00267008 0.00262406 0.0025765 0.00252768 0.00247785 0.00242728 0.00237623 0.00232494 0.00227365 0.00222259 0.00217198 0.00212204 0.00207295 0.00202491 0.00197809 0.00193266 0.00188876 0.00184653 0.00180611 0.00176761 0.00173114 0.00169681 0.00166469 0.00163487 0.00160743 0.00158241 0.00155989 0.00153991 0.00152251 0.00150773 0.0014956 0.00148614 0.00147936 0.0014753 0.00147394 
0.00122365 0.00122494 0.00122882 0.00123528 0.00124432 0.00125593 0.00127009 0.00128679 0.00130601 0.00132773 0.00135193 0.00137856 0.00140761 0.00143902 0.00147275 0.00150874 0.00154695 0.00158729 0.00162969 0.00167408 0.00172035 0.0017684 0.00181812 0.00186939 0.00192206 0.00197599 0.00203102 0.00208698 0.00214369 0.00220094 0.00225852 0.00231622 0.00237381 0.00243103 0.00248764 0.00254338 0.00259798 0.00265117 0.00270266 0.00275219 0.00279948 0.00284426 0.00288627 0.00292524 0.00296095 0.00299316 0.00302167 0.0030463 0.00306688 0.00308328 0.00309539 0.00310314 0.00310648 0.0031054 0.00309992 0.00309009 0.00307599 0.00305774 0.00303548 0.00300937 0.00297962 0.00294642 0.00291003 0.00287067 0.00282863 0.00278416 0.00273756 0.00268909 0.00263906 0.00258773 0.0025354 0.00248233 0.0024288 0.00237507 0.00232139 0.00226799 0.00221512 0.00216298 0.00211178 0.00206171 0.00201294 0.00196566 0.00192 0.00187612 0.00183414 0.00179418 0.00175636 0.00172076 0.00168748 0.0016566 0.00162818 0.0016023 0.001579 0.00155834 0.00154035 0.00152508 0.00151254 0.00150276 0.00149577 0.00149157 0.00149016 
0.00123743 0.00123876 0.00124276 0.00124943 0.00125875 0.00127072 0.00128533 0.00130257 0.00132241 0.00134485 0.00136984 0.00139737 0.0014274 0.00145989 0.0014948 0.00153207 0.00157166 0.00161348 0.00165747 0.00170355 0.00175162 0.00180158 0.00185332 0.00190671 0.00196161 0.00201787 0.00207533 0.00213381 0.00219313 0.00225308 0.00231343 0.00237397 0.00243445 0.0024946 0.00255418 0.00261289 0.00267045 0.00272658 0.00278097 0.00283334 0.00288338 0.00293079 0.00297531 0.00301664 0.00305452 0.00308872 0.00311899 0.00314515 0.00316701 0.00318442 0.00319726 0.00320546 0.00320896 0.00320775 0.00320185 0.00319131 0.00317622 0.00315672 0.00313295 0.0031051 0.00307338 0.00303802 0.00299928 0.00295744 0.00291277 0.00286556 0.00281614 0.00276478 0.00271182 0.00265754 0.00260225 0.00254624 0.0024898 0.00243321 0.00237672 0.00232059 0.00226506 0.00221035 0.00215667 0.00210423 0.0020532 0.00200376 0.00195606 0.00191025 0.00186645 0.0018248 0.00178539 0.00174833 0.0017137 0.00168159 0.00165205 0.00162516 0.00160096 0.00157951 0.00156084 0.00154499 0.00153199 0.00152185 0.00151459 0.00151024 0.00150878 
0.00125293 0.00125431 0.00125845 0.00126534 0.00127499 0.00128738 0.0013025 0.00132034 0.00134089 0.00136413 0.00139004 0.00141858 0.00144973 0.00148345 0.00151969 0.00155842 0.00159958 0.00164309 0.00168889 0.0017369 0.00178703 0.00183917 0.00189321 0.00194903 0.00200648 0.00206541 0.00212566 0.00218704 0.00224937 0.00231242 0.00237597 0.00243978 0.00250359 0.00256714 0.00263014 0.0026923 0.00275331 0.00281286 0.00287063 0.00292629 0.00297954 0.00303004 0.00307749 0.00312157 0.00316201 0.00319853 0.00323088 0.00325883 0.00328219 0.00330079 0.00331451 0.00332324 0.00332693 0.00332556 0.00331916 0.00330779 0.00329155 0.00327057 0.00324503 0.00321513 0.00318111 0.00314322 0.00310174 0.00305698 0.00300924 0.00295884 0.00290612 0.00285141 0.00279504 0.00273733 0.00267861 0.00261919 0.00255938 0.00249947 0.00243974 0.00238045 0.00232186 0.00226419 0.00220767 0.0021525 0.00209887 0.00204695 0.00199691 0.0019489 0.00190303 0.00185944 0.00181822 0.00177949 0.00174332 0.0017098 0.00167899 0.00165095 0.00162573 0.00160338 0.00158393 0.00156743 0.00155389 0.00154334 0.00153579 0.00153126 0.00152975 
0.00127012 0.00127155 0.00127584 0.00128299 0.001293 0.00130585 0.00132154 0.00134007 0.00136141 0.00138555 0.00141247 0.00144214 0.00147454 0.00150964 0.00154739 0.00158775 0.00163067 0.00167608 0.00172392 0.0017741 0.00182655 0.00188114 0.00193778 0.00199634 0.00205668 0.00211863 0.00218204 0.00224671 0.00231245 0.00237903 0.00244622 0.00251377 0.0025814 0.00264883 0.00271575 0.00278186 0.00284683 0.00291031 0.00297196 0.00303144 0.00308839 0.00314246 0.0031933 0.00324058 0.00328398 0.0033232 0.00335796 0.00338801 0.00341312 0.00343311 0.00344784 0.00345719 0.0034611 0.00345956 0.00345258 0.00344024 0.00342265 0.00339996 0.00337236 0.00334009 0.00330339 0.00326256 0.00321791 0.00316977 0.00311848 0.0030644 0.00300788 0.00294929 0.002889 0.00282735 0.00276469 0.00270137 0.0026377 0.002574 0.00251057 0.00244768 0.00238559 0.00232456 0.00226481 0.00220654 0.00214997 0.00209525 0.00204257 0.00199205 0.00194384 0.00189806 0.00185482 0.0018142 0.0017763 0.0017412 0.00170895 0.00167962 0.00165325 0.00162989 0.00160958 0.00159234 0.00157821 0.00156719 0.00155931 0.00155458 0.001553 
0.00128893 0.00129042 0.00129488 0.00130232 0.00131272 0.00132609 0.00134241 0.00136169 0.0013839 0.00140904 0.00143708 0.00146801 0.0015018 0.00153843 0.00157785 0.00162002 0.00166489 0.00171241 0.00176252 0.00181512 0.00187014 0.00192748 0.00198703 0.00204865 0.00211221 0.00217755 0.00224451 0.00231288 0.00238246 0.00245302 0.00252431 0.00259608 0.00266802 0.00273985 0.00281123 0.00288184 0.00295131 0.00301928 0.00308538 0.00314921 0.00321041 0.00326857 0.00332331 0.00337427 0.00342109 0.00346343 0.00350097 0.00353344 0.00356058 0.00358218 0.00359808 0.00360815 0.00361233 0.00361059 0.00360295 0.00358949 0.00357034 0.00354567 0.0035157 0.00348068 0.0034409 0.00339669 0.00334838 0.00329635 0.00324099 0.00318267 0.00312181 0.00305879 0.00299402 0.00292787 0.00286073 0.00279297 0.00272493 0.00265694 0.00258931 0.00252235 0.00245633 0.00239151 0.00232812 0.00226639 0.0022065 0.00214865 0.002093 0.00203969 0.00198887 0.00194065 0.00189513 0.00185242 0.00181259 0.00177572 0.00174188 0.00171111 0.00168347 0.00165899 0.00163771 0.00161967 0.00160487 0.00159334 0.0015851 0.00158015 0.0015785 
0.00130933 0.00131088 0.00131553 0.00132327 0.00133411 0.00134804 0.00136506 0.00138515 0.00140832 0.00143455 0.00146383 0.00149614 0.00153145 0.00156975 0.001611 0.00165516 0.00170219 0.00175204 0.00180464 0.00185991 0.00191779 0.00197816 0.00204091 0.00210594 0.00217308 0.00224219 0.00231309 0.00238558 0.00245945 0.00253446 0.00261035 0.00268685 0.00276364 0.00284042 0.00291683 0.00299252 0.00306709 0.00314015 0.00321129 0.00328009 0.00334612 0.00340896 0.00346817 0.00352334 0.00357408 0.00362 0.00366075 0.003696 0.00372548 0.00374894 0.0037662 0.00377711 0.0037816 0.00377962 0.00377122 0.00375648 0.00373554 0.0037086 0.00367589 0.00363772 0.0035944 0.0035463 0.00349381 0.00343734 0.00337732 0.00331418 0.00324836 0.00318031 0.00311045 0.00303921 0.00296701 0.00289423 0.00282125 0.00274843 0.0026761 0.00260458 0.00253415 0.00246509 0.00239765 0.00233204 0.00226847 0.00220713 0.00214818 0.00209178 0.00203806 0.00198714 0.00193912 0.00189409 0.00185213 0.00181332 0.00177772 0.00174537 0.00171632 0.00169062 0.00166828 0.00164934 0.00163381 0.00162172 0.00161308 0.00160789 0.00160615 
0.00133124 0.00133286 0.00133771 0.00134579 0.0013571 0.00137164 0.00138941 0.0014104 0.0014346 0.00146202 0.00149264 0.00152645 0.00156342 0.00160355 0.00164679 0.00169313 0.00174251 0.0017949 0.00185023 0.00190843 0.00196943 0.00203312 0.00209942 0.00216818 0.00223927 0.00231254 0.0023878 0.00246485 0.00254348 0.00262343 0.00270445 0.00278622 0.00286845 0.00295077 0.00303282 0.00311421 0.00319453 0.00327334 0.00335019 0.00342461 0.00349614 0.00356429 0.00362859 0.00368858 0.0037438 0.00379382 0.00383824 0.0038767 0.00390887 0.00393448 0.0039533 0.00396519 0.00397003 0.0039678 0.00395852 0.00394231 0.00391931 0.00388976 0.00385392 0.00381213 0.00376476 0.00371222 0.00365495 0.00359342 0.0035281 0.00345947 0.00338804 0.00331429 0.00323869 0.00316171 0.0030838 0.00300538 0.00292687 0.00284865 0.00277106 0.00269445 0.00261912 0.00254535 0.0024734 0.0024035 0.00233586 0.00227067 0.00220809 0.00214829 0.00209138 0.00203749 0.00198671 0.00193914 0.00189486 0.00185392 0.0018164 0.00178232 0.00175174 0.00172469 0.00170119 0.00168128 0.00166496 0.00165226 0.00164317 0.00163772 0.0016359 
0.0013546 0.00135629 0.00136136 0.0013698 0.00138162 0.00139682 0.0014154 0.00143735 0.00146268 0.00149138 0.00152345 0.00155887 0.00159764 0.00163974 0.00168515 0.00173384 0.00178578 0.00184092 0.00189922 0.00196061 0.00202501 0.00209234 0.00216249 0.00223535 0.00231077 0.0023886 0.00246865 0.00255074 0.00263461 0.00272004 0.00280672 0.00289436 0.00298262 0.00307112 0.00315948 0.00324727 0.00333404 0.00341931 0.00350259 0.00358337 0.00366112 0.0037353 0.0038054 0.00387087 0.0039312 0.00398592 0.00403455 0.00407669 0.00411195 0.00414003 0.00416066 0.00417366 0.00417892 0.0041764 0.00416613 0.00414823 0.00412288 0.00409033 0.0040509 0.00400498 0.00395298 0.00389537 0.00383266 0.00376536 0.00369402 0.00361918 0.0035414 0.00346121 0.00337914 0.00329571 0.0032114 0.00312668 0.003042 0.00295775 0.00287432 0.00279206 0.0027113 0.00263233 0.00255541 0.00248078 0.00240867 0.00233924 0.00227269 0.00220915 0.00214876 0.00209163 0.00203785 0.00198752 0.00194069 0.00189745 0.00185783 0.00182188 0.00178964 0.00176113 0.00173638 0.00171541 0.00169823 0.00168486 0.00167531 0.00166957 0.00166766 
0.00137935 0.00138111 0.00138641 0.00139524 0.00140761 0.00142351 0.00144295 0.00146594 0.00149247 0.00152255 0.00155617 0.00159333 0.00163403 0.00167826 0.00172599 0.00177722 0.00183192 0.00189004 0.00195154 0.00201637 0.00208447 0.00215574 0.00223008 0.0023074 0.00238754 0.00247035 0.00255566 0.00264325 0.0027329 0.00282434 0.00291728 0.00301141 0.00310635 0.00320173 0.00329711 0.00339204 0.00348602 0.00357855 0.00366907 0.00375702 0.0038418 0.00392283 0.0039995 0.00407121 0.00413739 0.00419747 0.00425092 0.00429728 0.00433609 0.00436701 0.00438973 0.00440403 0.00440978 0.00440693 0.00439552 0.00437568 0.00434763 0.00431165 0.00426812 0.00421747 0.00416018 0.00409679 0.00402788 0.00395403 0.00387587 0.003794 0.00370905 0.00362161 0.00353228 0.00344161 0.00335015 0.0032584 0.00316684 0.0030759 0.002986 0.00289751 0.00281076 0.00272605 0.00264368 0.00256387 0.00248685 0.00241281 0.00234192 0.00227431 0.00221013 0.00214948 0.00209245 0.00203912 0.00198955 0.00194381 0.00190193 0.00186396 0.00182992 0.00179984 0.00177374 0.00175164 0.00173354 0.00171945 0.00170938 0.00170334 0.00170133 
0.00140538 0.00140723 0.00141278 0.00142202 0.00143497 0.00145162 0.00147199 0.00149608 0.00152389 0.00155543 0.00159071 0.00162973 0.0016725 0.001719 0.00176923 0.00182317 0.00188082 0.00194214 0.0020071 0.00207564 0.00214771 0.00222324 0.00230213 0.00238427 0.00246953 0.00255776 0.00264879 0.0027424 0.00283836 0.00293641 0.00303624 0.00313751 0.00323984 0.00334283 0.00344601 0.0035489 0.00365095 0.00375161 0.00385026 0.00394628 0.00403901 0.00412778 0.00421192 0.00429074 0.00436357 0.00442979 0.00448878 0.00453997 0.00458288 0.00461707 0.00464219 0.00465799 0.00466431 0.0046611 0.00464839 0.00462633 0.00459518 0.00455527 0.00450703 0.00445096 0.00438763 0.00431765 0.00424168 0.0041604 0.0040745 0.00398469 0.00389165 0.00379607 0.00369858 0.00359982 0.00350038 0.00340081 0.00330162 0.00320328 0.00310623 0.00301086 0.00291753 0.00282654 0.0027382 0.00265273 0.00257037 0.00249131 0.0024157 0.00234369 0.00227541 0.00221095 0.00215041 0.00209385 0.00204132 0.00199289 0.00194859 0.00190844 0.00187248 0.00184072 0.00181317 0.00178985 0.00177076 0.00175591 0.0017453 0.00173894 0.00173681 
0.00143264 0.00143457 0.00144038 0.00145006 0.00146362 0.00148107 0.00150242 0.00152767 0.00155684 0.00158995 0.00162699 0.00166798 0.00171294 0.00176186 0.00181474 0.00187159 0.0019324 0.00199714 0.00206578 0.00213831 0.00221465 0.00229475 0.00237852 0.00246587 0.00255668 0.00265078 0.00274802 0.00284818 0.00295103 0.0030563 0.00316367 0.0032728 0.00338328 0.00349469 0.00360652 0.00371825 0.00382931 0.00393905 0.00404683 0.00415194 0.00425365 0.00435119 0.0044438 0.00453072 0.00461116 0.0046844 0.00474973 0.0048065 0.00485411 0.00489208 0.00491999 0.00493754 0.00494453 0.0049409 0.00492669 0.00490209 0.00486737 0.00482295 0.0047693 0.00470703 0.00463679 0.00455928 0.00447527 0.00438554 0.00429088 0.00419208 0.00408993 0.00398519 0.00387857 0.00377078 0.00366244 0.00355418 0.00344654 0.00334003 0.00323511 0.00313219 0.00303164 0.0029338 0.00283894 0.00274732 0.00265917 0.00257466 0.00249395 0.00241719 0.00234449 0.00227594 0.00221162 0.00215159 0.0020959 0.00204459 0.0019977 0.00195523 0.00191722 0.00188366 0.00185457 0.00182995 0.00180981 0.00179414 0.00178295 0.00177624 0.001774 