<?xml version="1.0"?>
<VTKFile type="StructuredGrid" version="0.1">
    <StructuredGrid WholeExtent="0 100 0 100 0 0">
        <Piece Extent="0 100 0 100 0 0">
            <Points>
                <DataArray type="Float64" NumberOfComponents="3" format="ascii">
-15 -15 0
-15 -14.7 0
-15 -14.4 0
-15 -14.1 0
-15 -13.8 0
-15 -13.5 0
-15 -13.2 0
-15 -12.9 0
-15 -12.6 0
-15 -12.3 0
-15 -12 0
-15 -11.7 0
-15 -11.4 0
-15 -11.1 0
-15 -10.8 0
-15 -10.5 0
-15 -10.2 0
-15 -9.9 0
-15 -9.6 0
-15 -9.3 0
-15 -9 0
-15 -8.7 0
-15 -8.4 0
-15 -8.1 0
-15 -7.8 0
-15 -7.5 0
-15 -7.2 0
-15 -6.9 0
-15 -6.6 0
-15 -6.3 0
-15 -6 0
-15 -5.7 0
-15 -5.4 0
-15 -5.1 0
-15 -4.8 0
-15 -4.5 0
-15 -4.2 0
-15 -3.9 0
-15 -3.6 0
-15 -3.3 0
-15 -3 0
-15 -2.7 0
-15 -2.4 0
-15 -2.1 0
-15 -1.8 0
-15 -1.5 0
-15 -1.2 0
-15 -0.9 0
-15 -0.6 0
-15 -0.3 0
-15 0 0
-15 0.3 0
-15 0.6 0
-15 0.9 0
-15 1.2 0
-15 1.5 0
-15 1.8 0
-15 2.1 0
-15 2.4 0
-15 2.7 0
-15 3 0
-15 3.3 0
-15 3.6 0
-15 3.9 0
-15 4.2 0
-15 4.5 0
-15 4.8 0
-15 5.1 0
-15 5.4 0
-15 5.7 0
-15 6 0
-15 6.3 0
-15 6.6 0
-15 6.9 0
-15 7.2 0
-15 7.5 0
-15 7.8 0
-15 8.1 0
-15 8.4 0
-15 8.7 0
-15 9 0
-15 9.3 0
-15 9.6 0
-15 9.9 0
-15 10.2 0
-15 10.5 0
-15 10.8 0
-15 11.1 0
-15 11.4 0
-15 11.7 0
-15 12 0
-15 12.3 0
-15 12.6 0
-15 12.9 0
-15 13.2 0
-15 13.5 0
-15 13.8 0
-15 14.1 0
-15 14.4 0
-15 14.7 0
-15 15 0
-14.7 -15 0
-14.7 -14.7 0
-14.7 -14.4 0
-14.7 -14.1 0
-14.7 -13.8 0
-14.7 -13.5 0
-14.7 -13.2 0
-14.7 -12.9 0
-14.7 -12.6 0
-14.7 -12.3 0
-14.7 -12 0
-14.7 -11.7 0
-14.7 -11.4 0
-14.7 -11.1 0
-14.7 -10.8 0
-14.7 -10.5 0
-14.7 -10.2 0
-14.7 -9.9 0
-14.7 -9.6 0
-14.7 -9.3 0
-14.7 -9 0
-14.7 -8.7 0
-14.7 -8.4 0
-14.7 -8.1 0
-14.7 -7.8 0
-14.7 -7.5 0
-14.7 -7.2 0
-14.7 -6.9 0
-14.7 -6.6 0
-14.7 -6.3 0
-14.7 -6 0
-14.7 -5.7 0
-14.7 -5.4 0
-14.7 -5.1 0
-14.7 -4.8 0
-14.7 -4.5 0
-14.7 -4.2 0
-14.7 -3.9 0
-14.7 -3.6 0
-14.7 -3.3 0
-14.7 -3 0
-14.7 -2.7 0
-14.7 -2.4 0
-14.7 -2.1 0
-14.7 -1.8 0
-14.7 -1.5 0
-14.7 -1.2 0
-14.7 -0.9 0
-14.7 -0.6 0
-14.7 -0.3 0
-14.7 0 0
-14.7 0.3 0
-14.7 0.6 0
-14.7 0.9 0
-14.7 1.2 0
-14.7 1.5 0
-14.7 1.8 0
-14.7 2.1 0
-14.7 2.4 0
-14.7 2.7 0
-14.7 3 0
-14.7 3.3 0
-14.7 3.6 0
-14.7 3.9 0
-14.7 4.2 0
-14.7 4.5 0
-14.7 4.8 0
-14.7 5.1 0
-14.7 5.4 0
-14.7 5.7 0
-14.7 6 0
-14.7 6.3 0
-14.7 6.6 0
-14.7 6.9 0
-14.7 7.2 0
-14.7 7.5 0
-14.7 7.8 0
-14.7 8.1 0
-14.7 8.4 0
-14.7 8.7 0
-14.7 9 0
-14.7 9.3 0
-14.7 9.6 0
-14.7 9.9 0
-14.7 10.2 0
-14.7 10.5 0
-14.7 10.8 0
-14.7 11.1 0
-14.7 11.4 0
-14.7 11.7 0
-14.7 12 0
-14.7 12.3 0
-14.7 12.6 0
-14.7 12.9 0
-14.7 13.2 0
-14.7 13.5 0
-14.7 13.8 0
-14.7 14.1 0
-14.7 14.4 0
-14.7 14.7 0
-14.7 15 0
-14.4 -15 0
-14.4 -14.7 0
-14.4 -14.4 0
-14.4 -14.1 0
-14.4 -13.8 0
-14.4 -13.5 0
-14.4 -13.2 0
-14.4 -12.9 0
-14.4 -12.6 0
-14.4 -12.3 0
-14.4 -12 0
-14.4 -11.7 0
-14.4 -11.4 0
-14.4 -11.1 0
-14.4 -10.8 0
-14.4 -10.5 0
-14.4 -10.2 0
-14.4 -9.9 0
-14.4 -9.6 0
-14.4 -9.3 0
-14.4 -9 0
-14.4 -8.7 0
-14.4 -8.4 0
-14.4 -8.1 0
-14.4 -7.8 0
-14.4 -7.5 0
-14.4 -7.2 0
-14.4 -6.9 0
-14.4 -6.6 0
-14.4 -6.3 0
-14.4 -6 0
-14.4 -5.7 0
-14.4 -5.4 0
-14.4 -5.1 0
-14.4 -4.8 0
-14.4 -4.5 0
-14.4 -4.2 0
-14.4 -3.9 0
-14.4 -3.6 0
-14.4 -3.3 0
-14.4 -3 0
-14.4 -2.7 0
-14.4 -2.4 0
-14.4 -2.1 0
-14.4 -1.8 0
-14.4 -1.5 0
-14.4 -1.2 0
-14.4 -0.9 0
-14.4 -0.6 0
-14.4 -0.3 0
-14.4 0 0
-14.4 0.3 0
-14.4 0.6 0
-14.4 0.9 0
-14.4 1.2 0
-14.4 1.5 0
-14.4 1.8 0
-14.4 2.1 0
-14.4 2.4 0
-14.4 2.7 0
-14.4 3 0
-14.4 3.3 0
-14.4 3.6 0
-14.4 3.9 0
-14.4 4.2 0
-14.4 4.5 0
-14.4 4.8 0
-14.4 5.1 0
-14.4 5.4 0
-14.4 5.7 0
-14.4 6 0
-14.4 6.3 0
-14.4 6.6 0
-14.4 6.9 0
-14.4 7.2 0
-14.4 7.5 0
-14.4 7.8 0
-14.4 8.1 0
-14.4 8.4 0
-14.4 8.7 0
-14.4 9 0
-14.4 9.3 0
-14.4 9.6 0
-14.4 9.9 0
-14.4 10.2 0
-14.4 10.5 0
-14.4 10.8 0
-14.4 11.1 0
-14.4 11.4 0
-14.4 11.7 0
-14.4 12 0
-14.4 12.3 0
-14.4 12.6 0
-14.4 12.9 0
-14.4 13.2 0
-14.4 13.5 0
-14.4 13.8 0
-14.4 14.1 0
-14.4 14.4 0
-14.4 14.7 0
-14.4 15 0
-14.1 -15 0
-14.1 -14.7 0
-14.1 -14.4 0
-14.1 -14.1 0
-14.1 -13.8 0
-14.1 -13.5 0
-14.1 -13.2 0
-14.1 -12.9 0
-14.1 -12.6 0
-14.1 -12.3 0
-14.1 -12 0
-14.1 -11.7 0
-14.1 -11.4 0
-14.1 -11.1 0
-14.1 -10.8 0
-14.1 -10.5 0
-14.1 -10.2 0
-14.1 -9.9 0
-14.1 -9.6 0
-14.1 -9.3 0
-14.1 -9 0
-14.1 -8.7 0
-14.1 -8.4 0
-14.1 -8.1 0
-14.1 -7.8 0
-14.1 -7.5 0
-14.1 -7.2 0
-14.1 -6.9 0
-14.1 -6.6 0
-14.1 -6.3 0
-14.1 -6 0
-14.1 -5.7 0
-14.1 -5.4 0
-14.1 -5.1 0
-14.1 -4.8 0
-14.1 -4.5 0
-14.1 -4.2 0
-14.1 -3.9 0
-14.1 -3.6 0
-14.1 -3.3 0
-14.1 -3 0
-14.1 -2.7 0
-14.1 -2.4 0
-14.1 -2.1 0
-14.1 -1.8 0
-14.1 -1.5 0
-14.1 -1.2 0
-14.1 -0.9 0
-14.1 -0.6 0
-14.1 -0.3 0
-14.1 0 0
-14.1 0.3 0
-14.1 0.6 0
-14.1 0.9 0
-14.1 1.2 0
-14.1 1.5 0
-14.1 1.8 0
-14.1 2.1 0
-14.1 2.4 0
-14.1 2.7 0
-14.1 3 0
-14.1 3.3 0
-14.1 3.6 0
-14.1 3.9 0
-14.1 4.2 0
-14.1 4.5 0
-14.1 4.8 0
-14.1 5.1 0
-14.1 5.4 0
-14.1 5.7 0
-14.1 6 0
-14.1 6.3 0
-14.1 6.6 0
-14.1 6.9 0
-14.1 7.2 0
-14.1 7.5 0
-14.1 7.8 0
-14.1 8.1 0
-14.1 8.4 0
-14.1 8.7 0
-14.1 9 0
-14.1 9.3 0
-14.1 9.6 0
-14.1 9.9 0
-14.1 10.2 0
-14.1 10.5 0
-14.1 10.8 0
-14.1 11.1 0
-14.1 11.4 0
-14.1 11.7 0
-14.1 12 0
-14.1 12.3 0
-14.1 12.6 0
-14.1 12.9 0
-14.1 13.2 0
-14.1 13.5 0
-14.1 13.8 0
-14.1 14.1 0
-14.1 14.4 0
-14.1 14.7 0
-14.1 15 0
-13.8 -15 0
-13.8 -14.7 0
-13.8 -14.4 0
-13.8 -14.1 0
-13.8 -13.8 0
-13.8 -13.5 0
-13.8 -13.2 0
-13.8 -12.9 0
-13.8 -12.6 0
-13.8 -12.3 0
-13.8 -12 0
-13.8 -11.7 0
-13.8 -11.4 0
-13.8 -11.1 0
-13.8 -10.8 0
-13.8 -10.5 0
-13.8 -10.2 0
-13.8 -9.9 0
-13.8 -9.6 0
-13.8 -9.3 0
-13.8 -9 0
-13.8 -8.7 0
-13.8 -8.4 0
-13.8 -8.1 0
-13.8 -7.8 0
-13.8 -7.5 0
-13.8 -7.2 0
-13.8 -6.9 0
-13.8 -6.6 0
-13.8 -6.3 0
-13.8 -6 0
-13.8 -5.7 0
-13.8 -5.4 0
-13.8 -5.1 0
-13.8 -4.8 0
-13.8 -4.5 0
-13.8 -4.2 0
-13.8 -3.9 0
-13.8 -3.6 0
-13.8 -3.3 0
-13.8 -3 0
-13.8 -2.7 0
-13.8 -2.4 0
-13.8 -2.1 0
-13.8 -1.8 0
-13.8 -1.5 0
-13.8 -1.2 0
-13.8 -0.9 0
-13.8 -0.6 0
-13.8 -0.3 0
-13.8 0 0
-13.8 0.3 0
-13.8 0.6 0
-13.8 0.9 0
-13.8 1.2 0
-13.8 1.5 0
-13.8 1.8 0
-13.8 2.1 0
-13.8 2.4 0
-13.8 2.7 0
-13.8 3 0
-13.8 3.3 0
-13.8 3.6 0
-13.8 3.9 0
-13.8 4.2 0
-13.8 4.5 0
-13.8 4.8 0
-13.8 5.1 0
-13.8 5.4 0
-13.8 5.7 0
-13.8 6 0
-13.8 6.3 0
-13.8 6.6 0
-13.8 6.9 0
-13.8 7.2 0
-13.8 7.5 0
-13.8 7.8 0
-13.8 8.1 0
-13.8 8.4 0
-13.8 8.7 0
-13.8 9 0
-13.8 9.3 0
-13.8 9.6 0
-13.8 9.9 0
-13.8 10.2 0
-13.8 10.5 0
-13.8 10.8 0
-13.8 11.1 0
-13.8 11.4 0
-13.8 11.7 0
-13.8 12 0
-13.8 12.3 0
-13.8 12.6 0
-13.8 12.9 0
-13.8 13.2 0
-13.8 13.5 0
-13.8 13.8 0
-13.8 14.1 0
-13.8 14.4 0
-13.8 14.7 0
-13.8 15 0
-13.5 -15 0
-13.5 -14.7 0
-13.5 -14.4 0
-13.5 -14.1 0
-13.5 -13.8 0
-13.5 -13.5 0
-13.5 -13.2 0
-13.5 -12.9 0
-13.5 -12.6 0
-13.5 -12.3 0
-13.5 -12 0
-13.5 -11.7 0
-13.5 -11.4 0
-13.5 -11.1 0
-13.5 -10.8 0
-13.5 -10.5 0
-13.5 -10.2 0
-13.5 -9.9 0
-13.5 -9.6 0
-13.5 -9.3 0
-13.5 -9 0
-13.5 -8.7 0
-13.5 -8.4 0
-13.5 -8.1 0
-13.5 -7.8 0
-13.5 -7.5 0
-13.5 -7.2 0
-13.5 -6.9 0
-13.5 -6.6 0
-13.5 -6.3 0
-13.5 -6 0
-13.5 -5.7 0
-13.5 -5.4 0
-13.5 -5.1 0
-13.5 -4.8 0
-13.5 -4.5 0
-13.5 -4.2 0
-13.5 -3.9 0
-13.5 -3.6 0
-13.5 -3.3 0
-13.5 -3 0
-13.5 -2.7 0
-13.5 -2.4 0
-13.5 -2.1 0
-13.5 -1.8 0
-13.5 -1.5 0
-13.5 -1.2 0
-13.5 -0.9 0
-13.5 -0.6 0
-13.5 -0.3 0
-13.5 0 0
-13.5 0.3 0
-13.5 0.6 0
-13.5 0.9 0
-13.5 1.2 0
-13.5 1.5 0
-13.5 1.8 0
-13.5 2.1 0
-13.5 2.4 0
-13.5 2.7 0
-13.5 3 0
-13.5 3.3 0
-13.5 3.6 0
-13.5 3.9 0
-13.5 4.2 0
-13.5 4.5 0
-13.5 4.8 0
-13.5 5.1 0
-13.5 5.4 0
-13.5 5.7 0
-13.5 6 0
-13.5 6.3 0
-13.5 6.6 0
-13.5 6.9 0
-13.5 7.2 0
-13.5 7.5 0
-13.5 7.8 0
-13.5 8.1 0
-13.5 8.4 0
-13.5 8.7 0
-13.5 9 0
-13.5 9.3 0
-13.5 9.6 0
-13.5 9.9 0
-13.5 10.2 0
-13.5 10.5 0
-13.5 10.8 0
-13.5 11.1 0
-13.5 11.4 0
-13.5 11.7 0
-13.5 12 0
-13.5 12.3 0
-13.5 12.6 0
-13.5 12.9 0
-13.5 13.2 0
-13.5 13.5 0
-13.5 13.8 0
-13.5 14.1 0
-13.5 14.4 0
-13.5 14.7 0
-13.5 15 0
-13.2 -15 0
-13.2 -14.7 0
-13.2 -14.4 0
-13.2 -14.1 0
-13.2 -13.8 0
-13.2 -13.5 0
-13.2 -13.2 0
-13.2 -12.9 0
-13.2 -12.6 0
-13.2 -12.3 0
-13.2 -12 0
-13.2 -11.7 0
-13.2 -11.4 0
-13.2 -11.1 0
-13.2 -10.8 0
-13.2 -10.5 0
-13.2 -10.2 0
-13.2 -9.9 0
-13.2 -9.6 0
-13.2 -9.3 0
-13.2 -9 0
-13.2 -8.7 0
-13.2 -8.4 0
-13.2 -8.1 0
-13.2 -7.8 0
-13.2 -7.5 0
-13.2 -7.2 0
-13.2 -6.9 0
-13.2 -6.6 0
-13.2 -6.3 0
-13.2 -6 0
-13.2 -5.7 0
-13.2 -5.4 0
-13.2 -5.1 0
-13.2 -4.8 0
-13.2 -4.5 0
-13.2 -4.2 0
-13.2 -3.9 0
-13.2 -3.6 0
-13.2 -3.3 0
-13.2 -3 0
-13.2 -2.7 0
-13.2 -2.4 0
-13.2 -2.1 0
-13.2 -1.8 0
-13.2 -1.5 0
-13.2 -1.2 0
-13.2 -0.9 0
-13.2 -0.6 0
-13.2 -0.3 0
-13.2 0 0
-13.2 0.3 0
-13.2 0.6 0
-13.2 0.9 0
-13.2 1.2 0
-13.2 1.5 0
-13.2 1.8 0
-13.2 2.1 0
-13.2 2.4 0
-13.2 2.7 0
-13.2 3 0
-13.2 3.3 0
-13.2 3.6 0
-13.2 3.9 0
-13.2 4.2 0
-13.2 4.5 0
-13.2 4.8 0
-13.2 5.1 0
-13.2 5.4 0
-13.2 5.7 0
-13.2 6 0
-13.2 6.3 0
-13.2 6.6 0
-13.2 6.9 0
-13.2 7.2 0
-13.2 7.5 0
-13.2 7.8 0
-13.2 8.1 0
-13.2 8.4 0
-13.2 8.7 0
-13.2 9 0
-13.2 9.3 0
-13.2 9.6 0
-13.2 9.9 0
-13.2 10.2 0
-13.2 10.5 0
-13.2 10.8 0
-13.2 11.1 0
-13.2 11.4 0
-13.2 11.7 0
-13.2 12 0
-13.2 12.3 0
-13.2 12.6 0
-13.2 12.9 0
-13.2 13.2 0
-13.2 13.5 0
-13.2 13.8 0
-13.2 14.1 0
-13.2 14.4 0
-13.2 14.7 0
-13.2 15 0
-12.9 -15 0
-12.9 -14.7 0
-12.9 -14.4 0
-12.9 -14.1 0
-12.9 -13.8 0
-12.9 -13.5 0
-12.9 -13.2 0
-12.9 -12.9 0
-12.9 -12.6 0
-12.9 -12.3 0
-12.9 -12 0
-12.9 -11.7 0
-12.9 -11.4 0
-12.9 -11.1 0
-12.9 -10.8 0
-12.9 -10.5 0
-12.9 -10.2 0
-12.9 -9.9 0
-12.9 -9.6 0
-12.9 -9.3 0
-12.9 -9 0
-12.9 -8.7 0
-12.9 -8.4 0
-12.9 -8.1 0
-12.9 -7.8 0
-12.9 -7.5 0
-12.9 -7.2 0
-12.9 -6.9 0
-12.9 -6.6 0
-12.9 -6.3 0
-12.9 -6 0
-12.9 -5.7 0
-12.9 -5.4 0
-12.9 -5.1 0
-12.9 -4.8 0
-12.9 -4.5 0
-12.9 -4.2 0
-12.9 -3.9 0
-12.9 -3.6 0
-12.9 -3.3 0
-12.9 -3 0
-12.9 -2.7 0
-12.9 -2.4 0
-12.9 -2.1 0
-12.9 -1.8 0
-12.9 -1.5 0
-12.9 -1.2 0
-12.9 -0.9 0
-12.9 -0.6 0
-12.9 -0.3 0
-12.9 0 0
-12.9 0.3 0
-12.9 0.6 0
-12.9 0.9 0
-12.9 1.2 0
-12.9 1.5 0
-12.9 1.8 0
-12.9 2.1 0
-12.9 2.4 0
-12.9 2.7 0
-12.9 3 0
-12.9 3.3 0
-12.9 3.6 0
-12.9 3.9 0
-12.9 4.2 0
-12.9 4.5 0
-12.9 4.8 0
-12.9 5.1 0
-12.9 5.4 0
-12.9 5.7 0
-12.9 6 0
-12.9 6.3 0
-12.9 6.6 0
-12.9 6.9 0
-12.9 7.2 0
-12.9 7.5 0
-12.9 7.8 0
-12.9 8.1 0
-12.9 8.4 0
-12.9 8.7 0
-12.9 9 0
[...]
            <PointData>
                <DataArray type="Float64" Name="c1" format="ascii">
0.00389184 0.00389644 0.00391024 0.00393324 0.00396544 0.00400684 0.00405744 0.00411724 0.00418624 0.00426443 0.00435181 0.00444834 0.00455401 0.00466879 0.00479263 0.00492548 0.00506725 0.00521785 0.00537716 0.00554503 0.00572128 0.00590568 0.00609797 0.00629783 0.00650489 0.0067187 0.00693876 0.00716447 0.00739516 0.00763003 0.00786822 0.00810869 0.00835034 0.00859191 0.00883205 0.00906934 0.00930238 0.00952985 0.00975065 0.00996397 0.0101693 0.0103664 0.0105552 0.0107353 0.0109064 0.0110678 0.0112184 0.0113568 0.011481 0.011589 0.0116786 0.0117475 0.0117938 0.0118161 0.0118137 0.0117869 0.0117366 0.0116643 0.0115717 0.0114603 0.0113315 0.0111865 0.0110262 0.0108512 0.0106623 0.0104605 0.010247 0.0100234 0.00979153 0.00955322 0.00931045 0.00906506 0.00881878 0.00857315 0.00832956 0.00808923 0.0078532 0.00762243 0.00739772 0.00717977 0.00696922 0.00676661 0.00657241 0.00638704 0.00621086 0.00604419 0.00588731 0.00574045 0.00560383 0.00547761 0.00536196 0.00525699 0.00516283 0.00507955 0.00500724 0.00494596 0.00489576 0.00485668 0.00482874 0.00481197 0.00480638 
0.00389326 0.00389786 0.00391168 0.0039347 0.00396694 0.00400839 0.00405905 0.00411893 0.00418802 0.0042663 0.00435379 0.00445045 0.00455626 0.0046712 0.00479522 0.00492826 0.00507025 0.00522109 0.00538067 0.00554883 0.0057254 0.00591016 0.00610283 0.00630312 0.00651064 0.00672496 0.00694558 0.00717191 0.00740327 0.00763888 0.00787787 0.00811923 0.00836183 0.00860441 0.0088456 0.00908396 0.00931801 0.0095464 0.00976798 0.00998192 0.0101878 0.0103854 0.0105746 0.0107554 0.0109274 0.0110898 0.0112417 0.0113814 0.0115071 0.0116166 0.0117075 0.0117775 0.0118244 0.0118469 0.0118443 0.0118169 0.0117658 0.0116925 0.0115989 0.0114867 0.0113571 0.0112114 0.0110504 0.0108747 0.010685 0.0104823 0.0102677 0.0100429 0.00980962 0.00956996 0.00932587 0.00907924 0.0088318 0.00858511 0.00834055 0.00809932 0.00786249 0.00763097 0.00740558 0.00718702 0.0069759 0.00677277 0.0065781 0.00639229 0.00621572 0.0060487 0.00589149 0.00574434 0.00560746 0.005481 0.00536514 0.00525999 0.00516566 0.00508224 0.00500981 0.00494843 0.00489815 0.004859 0.00483102 0.00481423 0.00480862 
0.00389751 0.00390213 0.003916 0.0039391 0.00397145 0.00401305 0.00406389 0.00412398 0.00419332 0.0042719 0.00435971 0.00445675 0.004563 0.00467841 0.00480296 0.0049366 0.00507924 0.00523081 0.00539118 0.00556022 0.00573775 0.00592356 0.00611739 0.00631895 0.00652786 0.00674371 0.00696599 0.00719415 0.00742752 0.00766535 0.00790676 0.00815077 0.00839624 0.00864189 0.0088863 0.00912789 0.00936506 0.00959627 0.00982022 0.010036 0.0102433 0.0104422 0.010633 0.0108157 0.0109902 0.0111558 0.0113114 0.0114553 0.0115856 0.0116996 0.0117945 0.0118677 0.0119167 0.0119397 0.0119363 0.011907 0.0118532 0.011777 0.0116804 0.0115655 0.0114337 0.0112861 0.0111232 0.0109455 0.0107535 0.0105479 0.0103299 0.0101013 0.00986395 0.00962019 0.00937212 0.00912174 0.00887082 0.00862094 0.00837345 0.00812955 0.00789028 0.00765654 0.00742912 0.00720871 0.00699589 0.00679121 0.00659513 0.00640804 0.00623029 0.0060622 0.00590402 0.005756 0.00561832 0.00549116 0.00537466 0.00526896 0.00517414 0.0050903 0.0050175 0.00495582 0.00490529 0.00486596 0.00483784 0.00482097 0.00481534 
0.00390458 0.00390922 0.00392316 0.0039464 0.00397893 0.00402077 0.00407191 0.00413236 0.00420212 0.00428118 0.00436955 0.00446722 0.00457417 0.00469038 0.00481582 0.00495043 0.00509416 0.00524692 0.00540862 0.00557911 0.00575823 0.00594579 0.00614154 0.00634519 0.0065564 0.00677477 0.00699982 0.00723102 0.00746773 0.00770923 0.00795468 0.00820312 0.00845342 0.00870428 0.00895418 0.0092014 0.00944403 0.00968019 0.00990821 0.010127 0.0103365 0.0105374 0.0107304 0.0109162 0.0110949 0.0112658 0.0114278 0.0115791 0.0117172 0.0118389 0.0119408 0.0120194 0.0120715 0.0120952 0.0120899 0.0120568 0.0119981 0.0119168 0.0118154 0.0116962 0.0115608 0.0114101 0.0112445 0.0110638 0.0108682 0.010658 0.0104343 0.0101991 0.00995476 0.00970396 0.00944913 0.00919242 0.00893566 0.00868044 0.00842808 0.00817975 0.00793644 0.00769901 0.00746822 0.00724473 0.0070291 0.00682185 0.00662341 0.00643418 0.00625448 0.00608461 0.00592483 0.00577535 0.00563636 0.00550802 0.00539048 0.00528384 0.00518821 0.00510367 0.00503027 0.00496809 0.00491715 0.00487751 0.00484917 0.00483216 0.00482649 
0.00391441 0.00391909 0.00393314 0.00395656 0.00398935 0.00403152 0.00408307 0.00414402 0.00421436 0.0042941 0.00438324 0.00448179 0.00458972 0.00470703 0.00483369 0.00496967 0.00511491 0.00526933 0.00543286 0.00560536 0.0057867 0.00597668 0.00617508 0.00638164 0.00659604 0.0068179 0.00704679 0.00728219 0.00752354 0.00777016 0.00802125 0.00827591 0.00853305 0.00879136 0.00904928 0.00930486 0.00955578 0.00979948 0.0100336 0.0102564 0.0104683 0.0106712 0.010867 0.0110568 0.0112411 0.0114197 0.0115912 0.0117534 0.0119031 0.0120363 0.0121484 0.0122346 0.0122907 0.0123141 0.0123049 0.0122654 0.0121992 0.0121102 0.012002 0.0118771 0.0117372 0.011583 0.0114144 0.0112304 0.0110303 0.0108139 0.0105821 0.0103372 0.0100825 0.00982132 0.00955671 0.00929098 0.009026 0.0087633 0.00850416 0.00824965 0.00800071 0.00775815 0.00752267 0.00729489 0.00707534 0.00686451 0.0066628 0.00647058 0.00628816 0.00611582 0.00595379 0.00580228 0.00566147 0.0055315 0.00541249 0.00530456 0.0052078 0.00512227 0.00504804 0.00498516 0.00493366 0.00489357 0.00486493 0.00484773 0.004842 
0.00392694 0.00393167 0.00394586 0.00396951 0.00400263 0.00404522 0.00409731 0.00415889 0.00422997 0.00431057 0.0044007 0.00450036 0.00460954 0.00472826 0.00485648 0.00499419 0.00514134 0.00529788 0.00546373 0.0056388 0.00582294 0.00601599 0.00621777 0.00642801 0.00664645 0.00687273 0.00710648 0.00734724 0.00759448 0.00784761 0.00810592 0.00836856 0.00863456 0.0089027 0.00917144 0.00943868 0.00970151 0.00995625 0.0101995 0.0104271 0.0106402 0.0108445 0.0110426 0.0112369 0.0114285 0.0116173 0.0118019 0.0119794 0.0121455 0.0122946 0.0124206 0.0125166 0.0125766 0.0125973 0.0125804 0.0125303 0.0124531 0.0123541 0.0122374 0.0121059 0.0119612 0.0118038 0.0116329 0.0114465 0.0112419 0.0110178 0.0107752 0.0105168 0.0102475 0.00997223 0.00969452 0.00941695 0.00914133 0.00886905 0.00860124 0.00833886 0.00808275 0.00783365 0.00759218 0.00735893 0.00713438 0.00691897 0.00671308 0.00651704 0.00633115 0.00615565 0.00599075 0.00583666 0.00569351 0.00556144 0.00544057 0.00533099 0.00523278 0.005146 0.0050707 0.00500692 0.0049547 0.00491406 0.00488502 0.00486759 0.00486178 
0.0039421 0.00394689 0.00396125 0.00398518 0.00401869 0.00406181 0.00411453 0.00417687 0.00424885 0.0043305 0.00442181 0.00452281 0.00463351 0.00475392 0.00488403 0.00502382 0.00517329 0.00533238 0.00550103 0.00567918 0.00586669 0.00606345 0.00626926 0.00648394 0.00670722 0.00693882 0.00717841 0.00742559 0.00767993 0.00794092 0.00820793 0.00848026 0.00875708 0.00903742 0.00932004 0.00960301 0.00988277 0.0101534 0.0104116 0.010644 0.0108538 0.0110581 0.0112567 0.0114555 0.0116559 0.0118579 0.0120599 0.0122586 0.0124473 0.0126182 0.0127626 0.0128705 0.0129325 0.0129451 0.0129134 0.0128462 0.0127541 0.0126432 0.0125172 0.0123789 0.0122299 0.0120708 0.0119 0.0117139 0.0115059 0.0112736 0.0110172 0.0107399 0.0104505 0.0101564 0.00986188 0.00956958 0.00928095 0.00899705 0.00871876 0.00844688 0.00818212 0.0079251 0.0076764 0.00743652 0.0072059 0.00698495 0.00677398 0.00657332 0.00638321 0.00620388 0.00603551 0.00587827 0.00573229 0.00559769 0.00547456 0.00536298 0.00526301 0.00517471 0.00509812 0.00503326 0.00498016 0.00493885 0.00490933 0.00489161 0.0048857 
0.00395981 0.00396466 0.00397921 0.00400347 0.00403745 0.00408116 0.00413463 0.00419786 0.0042709 0.00435375 0.00444645 0.00454902 0.00466148 0.00478386 0.00491616 0.00505839 0.00521054 0.00537259 0.0055445 0.00572621 0.00591765 0.00611868 0.00632919 0.00654898 0.00677787 0.00701561 0.00726195 0.00751658 0.00777915 0.00804924 0.00832636 0.00860991 0.00889927 0.00919391 0.00949342 0.00979707 0.0101015 0.010393 0.0106819 0.0109176 0.0111084 0.0113136 0.0115076 0.0117103 0.0119212 0.0121396 0.0123649 0.0125936 0.0128136 0.0130138 0.0131825 0.0133042 0.013364 0.0133563 0.0132972 0.0132021 0.013092 0.0129695 0.0128354 0.0126915 0.0125397 0.0123811 0.0122148 0.0120362 0.0118276 0.0115871 0.011314 0.0110087 0.0106912 0.0103726 0.0100575 0.00974771 0.00944388 0.00914648 0.00885605 0.00857313 0.00829828 0.00803204 0.00777489 0.00752726 0.00728954 0.00706209 0.00684519 0.00663911 0.00644406 0.00626024 0.0060878 0.00592688 0.00577759 0.00564003 0.00551425 0.00540033 0.00529831 0.00520823 0.00513012 0.005064 0.00500988 0.00496777 0.0049377 0.00491965 0.00491363 
0.00397994 0.00398487 0.00399964 0.00402427 0.00405878 0.00410317 0.00415748 0.00422173 0.00429596 0.00438019 0.00447446 0.0045788 0.00469327 0.00481788 0.00495266 0.00509765 0.00525284 0.00541824 0.00559383 0.00577958 0.00597543 0.0061813 0.00639708 0.00662264 0.00685783 0.00710248 0.00735641 0.00761942 0.00789127 0.00817166 0.00846017 0.00875627 0.00905948 0.0093697 0.00968793 0.0100172 0.0103625 0.0106669 0.0109302 0.0111495 0.0113872 0.0116189 0.0117892 0.0119968 0.0122211 0.0124589 0.0127148 0.0129892 0.013253 0.0134922 0.013693 0.0138314 0.0138817 0.0138283 0.0137207 0.0135766 0.0134511 0.0133231 0.0131854 0.0130384 0.0128853 0.0127297 0.0125734 0.0124206 0.0122144 0.0119669 0.0116775 0.0113245 0.0109669 0.010618 0.0102791 0.00994968 0.00962888 0.0093164 0.00901231 0.00871693 0.00843066 0.00815393 0.00788714 0.00763068 0.00738487 0.00715 0.00692632 0.00671405 0.00651336 0.00632442 0.00614734 0.00598223 0.00582916 0.00568821 0.00555942 0.00544283 0.00533847 0.00524636 0.00516652 0.00509896 0.00504367 0.00500067 0.00496995 0.00495152 0.00494538 
0.00400238 0.00400739 0.00402241 0.00404746 0.00408255 0.00412771 0.00418296 0.00424834 0.00432389 0.00440965 0.00450566 0.00461199 0.00472867 0.00485577 0.00499331 0.00514135 0.00529992 0.00546903 0.0056487 0.00583891 0.00603964 0.00625084 0.00647243 0.00670434 0.00694647 0.00719872 0.00746101 0.00773327 0.00801538 0.00830719 0.00860835 0.00891826 0.00923623 0.00956194 0.00989677 0.0102481 0.0105917 0.0108527 0.0110772 0.0113247 0.0116197 0.0118745 0.0120746 0.0123087 0.0125516 0.0128088 0.0131011 0.0134563 0.0137802 0.0140694 0.0143147 0.014476 0.0145053 0.0143343 0.0140921 0.0139228 0.0138116 0.0136962 0.0135632 0.0134156 0.0132609 0.0131084 0.0129589 0.0127727 0.0125584 0.0123046 0.0120196 0.0116796 0.0112688 0.0108866 0.0105232 0.0101734 0.00983457 0.00950578 0.00918674 0.00887758 0.00857861 0.00829017 0.00801262 0.00774626 0.00749138 0.0072482 0.00701693 0.00679773 0.00659074 0.00639606 0.00621378 0.00604397 0.00588668 0.00574194 0.00560978 0.00549021 0.00538324 0.00528887 0.0052071 0.00513792 0.00508133 0.00503733 0.0050059 0.00498704 0.00498076 
0.004027 0.0040321 0.00404739 0.0040729 0.00410863 0.00415462 0.0042109 0.00427752 0.00435451 0.00444195 0.00453988 0.00464837 0.00476748 0.00489728 0.00503784 0.00518922 0.00535146 0.00552462 0.00570872 0.00590379 0.00610982 0.0063268 0.0065547 0.00679347 0.0070431 0.00730356 0.00757489 0.00785716 0.00815046 0.00845484 0.00877007 0.00909546 0.00942966 0.00977057 0.0101146 0.0104552 0.0107526 0.011 0.0112513 0.0115184 0.0118052 0.012088 0.0123769 0.012654 0.0129137 0.0131769 0.0134884 0.0138355 0.0142124 0.0145378 0.0148252 0.0150619 0.0149819 0.0147241 0.0144998 0.0143266 0.0141685 0.0140932 0.0139723 0.0138233 0.0136612 0.0135126 0.0133264 0.0130894 0.0128431 0.0125731 0.012282 0.011985 0.0115763 0.0111701 0.0107859 0.0104167 0.0100597 0.00971371 0.00937856 0.00905438 0.00874146 0.00844013 0.0081507 0.00787342 0.00760852 0.00735618 0.00711653 0.00688969 0.00667574 0.00647475 0.00628675 0.00611177 0.00594983 0.00580092 0.00566505 0.0055422 0.00543235 0.00533549 0.0052516 0.00518065 0.00512263 0.00507752 0.00504531 0.00502599 0.00501955 
0.00405364 0.00405884 0.00407443 0.00410042 0.00413685 0.00418374 0.00424113 0.00430909 0.00438765 0.00447689 0.00457688 0.00468771 0.00480944 0.00494217 0.00508597 0.00524094 0.00540714 0.00558464 0.00577351 0.00597378 0.00618549 0.00640866 0.00664328 0.00688939 0.00714699 0.00741618 0.00769711 0.00799005 0.00829537 0.00861347 0.00894458 0.00928824 0.0096427 0.010004 0.0103637 0.0106826 0.0109365 0.0111861 0.0114565 0.0117451 0.0120521 0.0123774 0.0127461 0.0130556 0.0133173 0.0135544 0.0138514 0.0141748 0.0145113 0.0148252 0.0151028 0.01534 0.0152755 0.0150368 0.014829 0.0146855 0.0146085 0.0145449 0.0144284 0.0142689 0.014075 0.0139025 0.0136824 0.0134416 0.0131781 0.0128902 0.0125813 0.012259 0.0118769 0.0114645 0.0110656 0.0106789 0.0103036 0.00993954 0.00958711 0.00924663 0.00891852 0.00860312 0.00830072 0.00801152 0.00773569 0.00747335 0.00722458 0.00698942 0.0067679 0.00656004 0.00636581 0.00618522 0.00601822 0.00586479 0.00572489 0.00559848 0.00548551 0.00538595 0.00529975 0.00522688 0.00516731 0.005121 0.00508794 0.00506811 0.0050615 
0.00408215 0.00408745 0.00410335 0.00412987 0.00416704 0.00421489 0.00427348 0.00434286 0.00442309 0.00451427 0.00461646 0.00472977 0.00485429 0.00499013 0.00513739 0.00529617 0.00546658 0.0056487 0.00584262 0.00604841 0.00626613 0.00649583 0.00673757 0.00699139 0.00725739 0.00753573 0.00782669 0.00813077 0.0084487 0.00878153 0.00913044 0.0094962 0.00987767 0.0102704 0.0105989 0.0108659 0.0111058 0.0113878 0.0116834 0.0119981 0.0123291 0.0126831 0.0130796 0.0133989 0.0136515 0.0138965 0.0141782 0.014509 0.0148369 0.0151359 0.0153861 0.0155269 0.0155389 0.0153769 0.0152158 0.0150811 0.0151141 0.0150683 0.0149528 0.0147774 0.0145437 0.0142845 0.0140872 0.0138436 0.0135644 0.0132555 0.0129227 0.0125781 0.0121977 0.0117778 0.0113651 0.0109608 0.0105663 0.010183 0.00981187 0.0094537 0.00910909 0.00877841 0.00846195 0.00815985 0.00787222 0.00759909 0.00734047 0.00709635 0.00686668 0.00665143 0.00645051 0.00626388 0.00609146 0.00593317 0.00578894 0.00565871 0.00554239 0.00543992 0.00535125 0.00527632 0.00521508 0.00516749 0.00513352 0.00511315 0.00510636 
0.00411235 0.00411776 0.00413399 0.00416107 0.00419902 0.0042479 0.00430774 0.00437863 0.00446063 0.00455384 0.00465836 0.0047743 0.00490177 0.00504089 0.00519179 0.00535459 0.00552941 0.00571638 0.0059156 0.00612718 0.0063512 0.00658775 0.00683692 0.00709879 0.00737351 0.00766132 0.0079626 0.00827804 0.00860875 0.00895656 0.00932431 0.00971571 0.0101317 0.0104843 0.0107604 0.0110429 0.011311 0.0116103 0.0119378 0.0122741 0.0126286 0.0130036 0.013379 0.0137079 0.0139759 0.0142305 0.0145415 0.0148816 0.0152099 0.0155041 0.0157564 0.0158779 0.0159278 0.0158902 0.0158329 0.0157309 0.0157463 0.0156947 0.0155714 0.0153796 0.0151253 0.0148147 0.0145703 0.0143115 0.0140093 0.0136736 0.0133058 0.0129137 0.0125437 0.0121166 0.0116885 0.0112645 0.0108487 0.010444 0.0100524 0.00967489 0.00931236 0.00896518 0.00863358 0.00831763 0.00801734 0.00773267 0.00746355 0.00720986 0.00697151 0.00674838 0.00654034 0.00634729 0.00616909 0.00600563 0.00585681 0.00572251 0.00560263 0.00549709 0.00540579 0.00532867 0.00526566 0.00521671 0.00518177 0.00516083 0.00515384 
0.00414405 0.00414958 0.00416616 0.00419383 0.0042326 0.00428254 0.00434371 0.00441618 0.00450003 0.00459538 0.00470234 0.00482102 0.00495157 0.00509411 0.00524881 0.0054158 0.00559524 0.00578726 0.005992 0.00620959 0.00644015 0.0066838 0.00694067 0.00721087 0.0074946 0.00779213 0.00810389 0.00843062 0.00877362 0.00913522 0.00952005 0.00993834 0.0103364 0.0106438 0.0109491 0.0112531 0.0115533 0.0118799 0.0122269 0.0125785 0.0129543 0.0133565 0.0137414 0.0140928 0.014401 0.0146878 0.0149902 0.0153286 0.0156441 0.0159125 0.0162032 0.016436 0.0165503 0.0165849 0.016578 0.0165472 0.0165095 0.0164425 0.0163035 0.0160878 0.015806 0.0155052 0.0151666 0.014859 0.0145215 0.0141559 0.0137486 0.0133312 0.0129285 0.0124905 0.0120412 0.0115926 0.0111515 0.0107225 0.010308 0.00990936 0.00952742 0.00916249 0.00881469 0.00848398 0.00817025 0.00787335 0.00759309 0.00732929 0.00708177 0.00685032 0.00663477 0.00643494 0.00625065 0.00608175 0.00592808 0.0057895 0.00566587 0.00555708 0.00546302 0.0053836 0.00531872 0.00526834 0.00523239 0.00521083 0.00520365 
0.00417708 0.00418272 0.00419967 0.00422794 0.00426758 0.00431863 0.00438117 0.00445528 0.00454106 0.00463863 0.00474811 0.00486965 0.00500339 0.00514949 0.00530812 0.00547945 0.00566364 0.00586088 0.00607131 0.0062951 0.00653241 0.00678338 0.00704817 0.00732694 0.00761992 0.00792739 0.00824974 0.00858761 0.00894198 0.00931447 0.00970806 0.0101282 0.0105082 0.0108313 0.0111606 0.0114888 0.0118245 0.0121821 0.0125467 0.0129182 0.0133062 0.0137382 0.0141486 0.0145297 0.014885 0.015227 0.0155718 0.0158993 0.0162216 0.0164459 0.0166938 0.0171095 0.0173016 0.017383 0.0174115 0.0174389 0.0173792 0.0173229 0.0171664 0.0169135 0.0165574 0.0162236 0.0158353 0.0154679 0.0150945 0.0147166 0.0143035 0.0138469 0.0133856 0.0129114 0.0124281 0.0119466 0.0114749 0.0110177 0.0105777 0.010156 0.00975313 0.00936925 0.00900426 0.00865795 0.00833005 0.00802028 0.00772833 0.00745393 0.00719678 0.00695663 0.00673321 0.00652629 0.00633564 0.00616104 0.00600231 0.00585925 0.00573171 0.00561953 0.00552259 0.00544075 0.00537394 0.00532205 0.00528504 0.00526284 0.00525545 
0.00421122 0.00421699 0.00423431 0.00426322 0.00430374 0.00435594 0.0044199 0.00449571 0.00458348 0.00468334 0.00479543 0.0049199 0.00505692 0.00520668 0.00536935 0.00554513 0.00573422 0.00593679 0.00615306 0.0063832 0.0066274 0.00688585 0.00715874 0.00744629 0.00774875 0.0080664 0.00839961 0.00874876 0.0091142 0.00949617 0.00989472 0.0103102 0.0106825 0.0110369 0.0113907 0.0117392 0.0120902 0.0124966 0.0128879 0.0132831 0.0136734 0.0141511 0.0145934 0.0150013 0.0153914 0.015796 0.0161918 0.0165721 0.0169433 0.0172273 0.0174268 0.0178327 0.018099 0.0182404 0.0183309 0.0183741 0.0183306 0.0182396 0.0180428 0.0177536 0.0173748 0.0169422 0.0165269 0.0161152 0.0157006 0.0152886 0.014897 0.0144084 0.0138954 0.0133794 0.0128498 0.0123258 0.0118172 0.011328 0.0108599 0.0104133 0.00998811 0.0095842 0.00920114 0.00883848 0.00849577 0.00817257 0.00786844 0.007583 0.00731585 0.00706665 0.00683506 0.00662078 0.00642352 0.00624302 0.00607903 0.00593134 0.00579974 0.00568405 0.00558411 0.00549978 0.00543094 0.0053775 0.00533939 0.00531654 0.00530893 
0.00424627 0.00425217 0.00426988 0.00429943 0.00434086 0.00439424 0.00445966 0.00453721 0.00462702 0.00472923 0.00484399 0.00497147 0.00511185 0.00526534 0.00543214 0.00561247 0.00580653 0.00601455 0.00623674 0.00647333 0.00672454 0.00699059 0.00727172 0.0075682 0.00788035 0.0082085 0.00855302 0.00891414 0.00929163 0.00968418 0.0100882 0.0104957 0.0108868 0.0112622 0.0116409 0.0120145 0.0124208 0.0128426 0.0132482 0.0136722 0.0141302 0.0146199 0.0150828 0.0155264 0.0159546 0.0164068 0.0168521 0.017271 0.01768 0.0180387 0.0183019 0.01862 0.018929 0.0191407 0.0192935 0.0193386 0.0192946 0.0191126 0.0188697 0.0185527 0.0181883 0.0177108 0.0172592 0.0167993 0.0163336 0.0158728 0.0154341 0.0149777 0.0144501 0.0139016 0.0133044 0.0127264 0.012175 0.0116506 0.0111523 0.0106793 0.0102307 0.00980592 0.00940405 0.00902442 0.00866637 0.00832927 0.00801256 0.00771571 0.00743824 0.00717971 0.00693969 0.00671782 0.00651376 0.00632717 0.00615777 0.0060053 0.00586952 0.00575021 0.00564719 0.00556029 0.00548938 0.00543434 0.0053951 0.00537157 0.00536374 