<?xml version="1.0"?>
<VTKFile type="StructuredGrid" version="0.1">
    <StructuredGrid WholeExtent="0 100 0 100 0 0">
        <Piece Extent="0 100 0 100 0 0">
            <Points>
                <DataArray type="Float64" NumberOfComponents="3" format="ascii">
-15 -15 0
-15 -14.7 0
-15 -14.4 0
-15 -14.1 0
-15 -13.8 0
-15 -13.5 0
-15 -13.2 0
-15 -12.9 0
-15 -12.6 0
-15 -12.3 0
-15 -12 0
-15 -11.7 0
-15 -11.4 0
-15 -11.1 0
-15 -10.8 0
-15 -10.5 0
-15 -10.2 0
-15 -9.9 0
-15 -9.6 0
-15 -9.3 0
-15 -9 0
-15 -8.7 0
-15 -8.4 0
-15 -8.1 0
-15 -7.8 0
-15 -7.5 0
-15 -7.2 0
-15 -6.9 0
-15 -6.6 0
-15 -6.3 0
-15 -6 0
-15 -5.7 0
-15 -5.4 0
-15 -5.1 0
-15 -4.8 0
-15 -4.5 0
-15 -4.2 0
-15 -3.9 0
-15 -3.6 0
-15 -3.3 0
-15 -3 0
-15 -2.7 0
-15 -2.4 0
-15 -2.1 0
-15 -1.8 0
-15 -1.5 0
-15 -1.2 0
-15 -0.9 0
-15 -0.6 0
-15 -0.3 0
-15 0 0
-15 0.3 0
-15 0.6 0
-15 0.9 0
-15 1.2 0
-15 1.5 0
-15 1.8 0
-15 2.1 0
-15 2.4 0
-15 2.7 0
-15 3 0
-15 3.3 0
-15 3.6 0
-15 3.9 0
-15 4.2 0
-15 4.5 0
-15 4.8 0
-15 5.1 0
-15 5.4 0
-15 5.7 0
-15 6 0
-15 6.3 0
-15 6.6 0
-15 6.9 0
-15 7.2 0
-15 7.5 0
-15 7.8 0
-15 8.1 0
-15 8.4 0
-15 8.7 0
-15 9 0
-15 9.3 0
-15 9.6 0
-15 9.9 0
-15 10.2 0
-15 10.5 0
-15 10.8 0
-15 11.1 0
-15 11.4 0
-15 11.7 0
-15 12 0
-15 12.3 0
-15 12.6 0
-15 12.9 0
-15 13.2 0
-15 13.5 0
-15 13.8 0
-15 14.1 0
-15 14.4 0
-15 14.7 0
-15 15 0
-14.7 -15 0
-14.7 -14.7 0
-14.7 -14.4 0
-14.7 -14.1 0
-14.7 -13.8 0
-14.7 -13.5 0
-14.7 -13.2 0
-14.7 -12.9 0
-14.7 -12.6 0
-14.7 -12.3 0
-14.7 -12 0
-14.7 -11.7 0
-14.7 -11.4 0
-14.7 -11.1 0
-14.7 -10.8 0
-14.7 -10.5 0
-14.7 -10.2 0
-14.7 -9.9 0
-14.7 -9.6 0
-14.7 -9.3 0
-14.7 -9 0
-14.7 -8.7 0
-14.7 -8.4 0
-14.7 -8.1 0
-14.7 -7.8 0
-14.7 -7.5 0
-14.7 -7.2 0
-14.7 -6.9 0
-14.7 -6.6 0
-14.7 -6.3 0
-14.7 -6 0
-14.7 -5.7 0
-14.7 -5.4 0
-14.7 -5.1 0
-14.7 -4.8 0
-14.7 -4.5 0
-14.7 -4.2 0
-14.7 -3.9 0
-14.7 -3.6 0
-14.7 -3.3 0
-14.7 -3 0
-14.7 -2.7 0
-14.7 -2.4 0
-14.7 -2.1 0
-14.7 -1.8 0
-14.7 -1.5 0
-14.7 -1.2 0
-14.7 -0.9 0
-14.7 -0.6 0
-14.7 -0.3 0
-14.7 0 0
-14.7 0.3 0
-14.7 0.6 0
-14.7 0.9 0
-14.7 1.2 0
-14.7 1.5 0
-14.7 1.8 0
-14.7 2.1 0
-14.7 2.4 0
-14.7 2.7 0
-14.7 3 0
-14.7 3.3 0
-14.7 3.6 0
-14.7 3.9 0
-14.7 4.2 0
-14.7 4.5 0
-14.7 4.8 0
-14.7 5.1 0
-14.7 5.4 0
-14.7 5.7 0
-14.7 6 0
-14.7 6.3 0
-14.7 6.6 0
-14.7 6.9 0
-14.7 7.2 0
-14.7 7.5 0
-14.7 7.8 0
-14.7 8.1 0
-14.7 8.4 0
-14.7 8.7 0
-14.7 9 0
-14.7 9.3 0
-14.7 9.6 0
-14.7 9.9 0
-14.7 10.2 0
-14.7 10.5 0
-14.7 10.8 0
-14.7 11.1 0
-14.7 11.4 0
-14.7 11.7 0
-14.7 12 0
-14.7 12.3 0
-14.7 12.6 0
-14.7 12.9 0
-14.7 13.2 0
-14.7 13.5 0
-14.7 13.8 0
-14.7 14.1 0
-14.7 14.4 0
-14.7 14.7 0
-14.7 15 0
-14.4 -15 0
-14.4 -14.7 0
-14.4 -14.4 0
-14.4 -14.1 0
-14.4 -13.8 0
-14.4 -13.5 0
-14.4 -13.2 0
-14.4 -12.9 0
-14.4 -12.6 0
-14.4 -12.3 0
-14.4 -12 0
-14.4 -11.7 0
-14.4 -11.4 0
-14.4 -11.1 0
-14.4 -10.8 0
-14.4 -10.5 0
-14.4 -10.2 0
-14.4 -9.9 0
-14.4 -9.6 0
-14.4 -9.3 0
-14.4 -9 0
-14.4 -8.7 0
-14.4 -8.4 0
-14.4 -8.1 0
-14.4 -7.8 0
-14.4 -7.5 0
-14.4 -7.2 0
-14.4 -6.9 0
-14.4 -6.6 0
-14.4 -6.3 0
-14.4 -6 0
-14.4 -5.7 0
-14.4 -5.4 0
-14.4 -5.1 0
-14.4 -4.8 0
-14.4 -4.5 0
-14.4 -4.2 0
-14.4 -3.9 0
-14.4 -3.6 0
-14.4 -3.3 0
-14.4 -3 0
-14.4 -2.7 0
-14.4 -2.4 0
-14.4 -2.1 0
-14.4 -1.8 0
-14.4 -1.5 0
-14.4 -1.2 0
-14.4 -0.9 0
-14.4 -0.6 0
-14.4 -0.3 0
-14.4 0 0
-14.4 0.3 0
-14.4 0.6 0
-14.4 0.9 0
-14.4 1.2 0
-14.4 1.5 0
-14.4 1.8 0
-14.4 2.1 0
-14.4 2.4 0
-14.4 2.7 0
-14.4 3 0
-14.4 3.3 0
-14.4 3.6 0
-14.4 3.9 0
-14.4 4.2 0
-14.4 4.5 0
-14.4 4.8 0
-14.4 5.1 0
-14.4 5.4 0
-14.4 5.7 0
-14.4 6 0
-14.4 6.3 0
-14.4 6.6 0
-14.4 6.9 0
-14.4 7.2 0
-14.4 7.5 0
-14.4 7.8 0
-14.4 8.1 0
-14.4 8.4 0
-14.4 8.7 0
-14.4 9 0
-14.4 9.3 0
-14.4 9.6 0
-14.4 9.9 0
-14.4 10.2 0
-14.4 10.5 0
-14.4 10.8 0
-14.4 11.1 0
-14.4 11.4 0
-14.4 11.7 0
-14.4 12 0
-14.4 12.3 0
-14.4 12.6 0
-14.4 12.9 0
-14.4 13.2 0
-14.4 13.5 0
-14.4 13.8 0
-14.4 14.1 0
-14.4 14.4 0
-14.4 14.7 0
-14.4 15 0
-14.1 -15 0
-14.1 -14.7 0
-14.1 -14.4 0
-14.1 -14.1 0
-14.1 -13.8 0
-14.1 -13.5 0
-14.1 -13.2 0
-14.1 -12.9 0
-14.1 -12.6 0
-14.1 -12.3 0
-14.1 -12 0
-14.1 -11.7 0
-14.1 -11.4 0
-14.1 -11.1 0
-14.1 -10.8 0
-14.1 -10.5 0
-14.1 -10.2 0
-14.1 -9.9 0
-14.1 -9.6 0
-14.1 -9.3 0
-14.1 -9 0
-14.1 -8.7 0
-14.1 -8.4 0
-14.1 -8.1 0
-14.1 -7.8 0
-14.1 -7.5 0
-14.1 -7.2 0
-14.1 -6.9 0
-14.1 -6.6 0
-14.1 -6.3 0
-14.1 -6 0
-14.1 -5.7 0
-14.1 -5.4 0
-14.1 -5.1 0
-14.1 -4.8 0
-14.1 -4.5 0
-14.1 -4.2 0
-14.1 -3.9 0
-14.1 -3.6 0
-14.1 -3.3 0
-14.1 -3 0
-14.1 -2.7 0
-14.1 -2.4 0
-14.1 -2.1 0
-14.1 -1.8 0
-14.1 -1.5 0
-14.1 -1.2 0
-14.1 -0.9 0
-14.1 -0.6 0
-14.1 -0.3 0
-14.1 0 0
-14.1 0.3 0
-14.1 0.6 0
-14.1 0.9 0
-14.1 1.2 0
-14.1 1.5 0
-14.1 1.8 0
-14.1 2.1 0
-14.1 2.4 0
-14.1 2.7 0
-14.1 3 0
-14.1 3.3 0
-14.1 3.6 0
-14.1 3.9 0
-14.1 4.2 0
-14.1 4.5 0
-14.1 4.8 0
-14.1 5.1 0
-14.1 5.4 0
-14.1 5.7 0
-14.1 6 0
-14.1 6.3 0
-14.1 6.6 0
-14.1 6.9 0
-14.1 7.2 0
-14.1 7.5 0
-14.1 7.8 0
-14.1 8.1 0
-14.1 8.4 0
-14.1 8.7 0
-14.1 9 0
-14.1 9.3 0
-14.1 9.6 0
-14.1 9.9 0
-14.1 10.2 0
-14.1 10.5 0
-14.1 10.8 0
-14.1 11.1 0
-14.1 11.4 0
-14.1 11.7 0
-14.1 12 0
-14.1 12.3 0
-14.1 12.6 0
-14.1 12.9 0
-14.1 13.2 0
-14.1 13.5 0
-14.1 13.8 0
-14.1 14.1 0
-14.1 14.4 0
-14.1 14.7 0
-14.1 15 0
-13.8 -15 0
-13.8 -14.7 0
-13.8 -14.4 0
-13.8 -14.1 0
-13.8 -13.8 0
-13.8 -13.5 0
-13.8 -13.2 0
-13.8 -12.9 0
-13.8 -12.6 0
-13.8 -12.3 0
-13.8 -12 0
-13.8 -11.7 0
-13.8 -11.4 0
-13.8 -11.1 0
-13.8 -10.8 0
-13.8 -10.5 0
-13.8 -10.2 0
-13.8 -9.9 0
-13.8 -9.6 0
-13.8 -9.3 0
-13.8 -9 0
-13.8 -8.7 0
-13.8 -8.4 0
-13.8 -8.1 0
-13.8 -7.8 0
-13.8 -7.5 0
-13.8 -7.2 0
-13.8 -6.9 0
-13.8 -6.6 0
-13.8 -6.3 0
-13.8 -6 0
-13.8 -5.7 0
-13.8 -5.4 0
-13.8 -5.1 0
-13.8 -4.8 0
-13.8 -4.5 0
-13.8 -4.2 0
-13.8 -3.9 0
-13.8 -3.6 0
-13.8 -3.3 0
-13.8 -3 0
-13.8 -2.7 0
-13.8 -2.4 0
-13.8 -2.1 0
-13.8 -1.8 0
-13.8 -1.5 0
-13.8 -1.2 0
-13.8 -0.9 0
-13.8 -0.6 0
-13.8 -0.3 0
-13.8 0 0
-13.8 0.3 0
-13.8 0.6 0
-13.8 0.9 0
-13.8 1.2 0
-13.8 1.5 0
-13.8 1.8 0
-13.8 2.1 0
-13.8 2.4 0
-13.8 2.7 0
-13.8 3 0
-13.8 3.3 0
-13.8 3.6 0
-13.8 3.9 0
-13.8 4.2 0
-13.8 4.5 0
-13.8 4.8 0
-13.8 5.1 0
-13.8 5.4 0
-13.8 5.7 0
-13.8 6 0
-13.8 6.3 0
-13.8 6.6 0
-13.8 6.9 0
-13.8 7.2 0
-13.8 7.5 0
-13.8 7.8 0
-13.8 8.1 0
-13.8 8.4 0
-13.8 8.7 0
-13.8 9 0
-13.8 9.3 0
-13.8 9.6 0
-13.8 9.9 0
-13.8 10.2 0
-13.8 10.5 0
-13.8 10.8 0
-13.8 11.1 0
-13.8 11.4 0
-13.8 11.7 0
-13.8 12 0
-13.8 12.3 0
-13.8 12.6 0
-13.8 12.9 0
-13.8 13.2 0
-13.8 13.5 0
-13.8 13.8 0
-13.8 14.1 0
-13.8 14.4 0
-13.8 14.7 0
-13.8 15 0
-13.5 -15 0
-13.5 -14.7 0
-13.5 -14.4 0
-13.5 -14.1 0
-13.5 -13.8 0
-13.5 -13.5 0
-13.5 -13.2 0
-13.5 -12.9 0
-13.5 -12.6 0
-13.5 -12.3 0
-13.5 -12 0
-13.5 -11.7 0
-13.5 -11.4 0
-13.5 -11.1 0
-13.5 -10.8 0
-13.5 -10.5 0
-13.5 -10.2 0
-13.5 -9.9 0
-13.5 -9.6 0
-13.5 -9.3 0
-13.5 -9 0
-13.5 -8.7 0
-13.5 -8.4 0
-13.5 -8.1 0
-13.5 -7.8 0
-13.5 -7.5 0
-13.5 -7.2 0
-13.5 -6.9 0
-13.5 -6.6 0
-13.5 -6.3 0
-13.5 -6 0
-13.5 -5.7 0
-13.5 -5.4 0
-13.5 -5.1 0
-13.5 -4.8 0
-13.5 -4.5 0
-13.5 -4.2 0
-13.5 -3.9 0
-13.5 -3.6 0
-13.5 -3.3 0
-13.5 -3 0
-13.5 -2.7 0
-13.5 -2.4 0
-13.5 -2.1 0
-13.5 -1.8 0
-13.5 -1.5 0
-13.5 -1.2 0
-13.5 -0.9 0
-13.5 -0.6 0
-13.5 -0.3 0
-13.5 0 0
-13.5 0.3 0
-13.5 0.6 0
-13.5 0.9 0
-13.5 1.2 0
-13.5 1.5 0
-13.5 1.8 0
-13.5 2.1 0
-13.5 2.4 0
-13.5 2.7 0
-13.5 3 0
-13.5 3.3 0
-13.5 3.6 0
-13.5 3.9 0
-13.5 4.2 0
-13.5 4.5 0
-13.5 4.8 0
-13.5 5.1 0
-13.5 5.4 0
-13.5 5.7 0
-13.5 6 0
-13.5 6.3 0
-13.5 6.6 0
-13.5 6.9 0
-13.5 7.2 0
-13.5 7.5 0
-13.5 7.8 0
-13.5 8.1 0
-13.5 8.4 0
-13.5 8.7 0
-13.5 9 0
-13.5 9.3 0
-13.5 9.6 0
-13.5 9.9 0
-13.5 10.2 0
-13.5 10.5 0
-13.5 10.8 0
-13.5 11.1 0
-13.5 11.4 0
-13.5 11.7 0
-13.5 12 0
-13.5 12.3 0
-13.5 12.6 0
-13.5 12.9 0
-13.5 13.2 0
-13.5 13.5 0
-13.5 13.8 0
-13.5 14.1 0
-13.5 14.4 0
-13.5 14.7 0
-13.5 15 0
-13.2 -15 0
-13.2 -14.7 0
-13.2 -14.4 0
-13.2 -14.1 0
-13.2 -13.8 0
-13.2 -13.5 0
-13.2 -13.2 0
-13.2 -12.9 0
-13.2 -12.6 0
-13.2 -12.3 0
-13.2 -12 0
-13.2 -11.7 0
-13.2 -11.4 0
-13.2 -11.1 0
-13.2 -10.8 0
-13.2 -10.5 0
-13.2 -10.2 0
-13.2 -9.9 0
-13.2 -9.6 0
-13.2 -9.3 0
-13.2 -9 0
-13.2 -8.7 0
-13.2 -8.4 0
-13.2 -8.1 0
-13.2 -7.8 0
-13.2 -7.5 0
-13.2 -7.2 0
-13.2 -6.9 0
-13.2 -6.6 0
-13.2 -6.3 0
-13.2 -6 0
-13.2 -5.7 0
-13.2 -5.4 0
-13.2 -5.1 0
-13.2 -4.8 0
-13.2 -4.5 0
-13.2 -4.2 0
-13.2 -3.9 0
-13.2 -3.6 0
-13.2 -3.3 0
-13.2 -3 0
-13.2 -2.7 0
-13.2 -2.4 0
-13.2 -2.1 0
-13.2 -1.8 0
-13.2 -1.5 0
-13.2 -1.2 0
-13.2 -0.9 0
-13.2 -0.6 0
-13.2 -0.3 0
-13.2 0 0
-13.2 0.3 0
-13.2 0.6 0
-13.2 0.9 0
-13.2 1.2 0
-13.2 1.5 0
-13.2 1.8 0
-13.2 2.1 0
-13.2 2.4 0
-13.2 2.7 0
-13.2 3 0
-13.2 3.3 0
-13.2 3.6 0
-13.2 3.9 0
-13.2 4.2 0
-13.2 4.5 0
-13.2 4.8 0
-13.2 5.1 0
-13.2 5.4 0
-13.2 5.7 0
-13.2 6 0
-13.2 6.3 0
-13.2 6.6 0
-13.2 6.9 0
-13.2 7.2 0
-13.2 7.5 0
-13.2 7.8 0
-13.2 8.1 0
-13.2 8.4 0
-13.2 8.7 0
-13.2 9 0
-13.2 9.3 0
-13.2 9.6 0
-13.2 9.9 0
-13.2 10.2 0
-13.2 10.5 0
-13.2 10.8 0
-13.2 11.1 0
-13.2 11.4 0
-13.2 11.7 0
-13.2 12 0
-13.2 12.3 0
-13.2 12.6 0
-13.2 12.9 0
-13.2 13.2 0
-13.2 13.5 0
-13.2 13.8 0
-13.2 14.1 0
-13.2 14.4 0
-13.2 14.7 0
-13.2 15 0
-12.9 -15 0
-12.9 -14.7 0
-12.9 -14.4 0
-12.9 -14.1 0
-12.9 -13.8 0
-12.9 -13.5 0
-12.9 -13.2 0
-12.9 -12.9 0
-12.9 -12.6 0
-12.9 -12.3 0
-12.9 -12 0
-12.9 -11.7 0
-12.9 -11.4 0
-12.9 -11.1 0
-12.9 -10.8 0
-12.9 -10.5 0
-12.9 -10.2 0
-12.9 -9.9 0
-12.9 -9.6 0
-12.9 -9.3 0
-12.9 -9 0
-12.9 -8.7 0
-12.9 -8.4 0
-12.9 -8.1 0
-12.9 -7.8 0
-12.9 -7.5 0
-12.9 -7.2 0
-12.9 -6.9 0
-12.9 -6.6 0
-12.9 -6.3 0
-12.9 -6 0
-12.9 -5.7 0
-12.9 -5.4 0
-12.9 -5.1 0
-12.9 -4.8 0
-12.9 -4.5 0
-12.9 -4.2 0
-12.9 -3.9 0
-12.9 -3.6 0
-12.9 -3.3 0
-12.9 -3 0
-12.9 -2.7 0
-12.9 -2.4 0
-12.9 -2.1 0
-12.9 -1.8 0
-12.9 -1.5 0
-12.9 -1.2 0
-12.9 -0.9 0
-12.9 -0.6 0
-12.9 -0.3 0
-12.9 0 0
-12.9 0.3 0
-12.9 0.6 0
-12.9 0.9 0
-12.9 1.2 0
-12.9 1.5 0
-12.9 1.8 0
-12.9 2.1 0
-12.9 2.4 0
-12.9 2.7 0
-12.9 3 0
-12.9 3.3 0
-12.9 3.6 0
-12.9 3.9 0
-12.9 4.2 0
-12.9 4.5 0
-12.9 4.8 0
-12.9 5.1 0
-12.9 5.4 0
-12.9 5.7 0
-12.9 6 0
-12.9 6.3 0
-12.9 6.6 0
-12.9 6.9 0
-12.9 7.2 0
-12.9 7.5 0
-12.9 7.8 0
-12.9 8.1 0
-12.9 8.4 0
-12.9 8.7 0
-12.9 9 0
[...]
            <PointData>
                <DataArray type="Float64" Name="c1" format="ascii">
0.00263351 0.00263642 0.00264514 0.00265968 0.00268003 0.00270616 0.00273806 0.00277571 0.00281908 0.00286813 0.00292282 0.00298309 0.0030489 0.00312015 0.00319677 0.00327866 0.00336571 0.00345778 0.00355473 0.00365638 0.00376254 0.003873 0.00398752 0.00410582 0.00422761 0.00435257 0.00448033 0.0046105 0.00474266 0.00487635 0.00501108 0.00514633 0.00528154 0.00541612 0.00554947 0.00568093 0.00580987 0.00593558 0.00605739 0.0061746 0.00628651 0.00639243 0.0064917 0.00658365 0.00666767 0.00674319 0.00680967 0.00686663 0.00691367 0.00695045 0.00697669 0.00699223 0.00699694 0.00699082 0.00697393 0.00694642 0.00690853 0.00686056 0.0068029 0.006736 0.00666036 0.00657656 0.00648519 0.0063869 0.00628237 0.00617228 0.00605734 0.00593827 0.00581577 0.00569055 0.00556329 0.00543467 0.00530533 0.00517591 0.00504698 0.00491913 0.00479287 0.00466872 0.00454714 0.00442856 0.00431338 0.00420198 0.00409468 0.00399179 0.00389359 0.00380033 0.00371223 0.00362949 0.00355228 0.00348076 0.00341507 0.00335532 0.00330162 0.00325405 0.00321268 0.00317758 0.0031488 0.00312637 0.00311033 0.0031007 0.00309749 
0.00263535 0.00263827 0.00264701 0.00266158 0.00268197 0.00270816 0.00274013 0.00277786 0.00282132 0.00287048 0.0029253 0.00298571 0.00305167 0.00312309 0.0031999 0.003282 0.00336927 0.00346158 0.00355879 0.00366072 0.00376718 0.00387797 0.00399283 0.00411149 0.00423367 0.00435904 0.00448723 0.00461785 0.00475048 0.00488467 0.00501991 0.00515569 0.00529145 0.00542659 0.00556051 0.00569256 0.00582208 0.00594839 0.00607078 0.00618857 0.00630105 0.00640752 0.0065073 0.00659975 0.00668423 0.00676016 0.00682701 0.00688429 0.0069316 0.00696858 0.00699497 0.00701059 0.00701532 0.00700915 0.00699215 0.00696447 0.00692635 0.00687809 0.00682009 0.0067528 0.00667674 0.00659247 0.0065006 0.00640179 0.00629671 0.00618606 0.00607055 0.0059509 0.00582782 0.00570202 0.00557419 0.00544501 0.00531512 0.00518515 0.00505571 0.00492735 0.00480061 0.004676 0.00455398 0.00443498 0.00431941 0.00420763 0.00409998 0.00399676 0.00389826 0.00380471 0.00371635 0.00363336 0.00355593 0.00348422 0.00341834 0.00335843 0.00330458 0.00325688 0.00321541 0.00318022 0.00315136 0.00312888 0.0031128 0.00310314 0.00309992 
0.00264088 0.00264381 0.00265261 0.00266727 0.00268779 0.00271414 0.00274632 0.0027843 0.00282805 0.00287754 0.00293273 0.00299356 0.00305998 0.00313192 0.00320929 0.003292 0.00337994 0.00347298 0.00357097 0.00367374 0.00378111 0.00389285 0.00400874 0.0041285 0.00425185 0.00437844 0.00450792 0.0046399 0.00477396 0.00490963 0.00504641 0.00518379 0.00532119 0.00545803 0.00559368 0.00572748 0.00585877 0.00598685 0.00611102 0.00623055 0.00634473 0.00645285 0.00655421 0.00664814 0.006734 0.00681119 0.00687916 0.0069374 0.00698551 0.00702311 0.00704994 0.0070658 0.00707058 0.00706427 0.00704694 0.00701874 0.00697992 0.0069308 0.00687177 0.00680332 0.00672596 0.00664028 0.00654691 0.00644652 0.00633979 0.00622745 0.00611022 0.00598883 0.005864 0.00573646 0.00560691 0.00547603 0.00534448 0.0052129 0.0050819 0.00495203 0.00482384 0.00469784 0.0045745 0.00445424 0.00433748 0.00422458 0.00411587 0.00401167 0.00391224 0.00381784 0.00372869 0.00364498 0.00356688 0.00349456 0.00342814 0.00336774 0.00331346 0.00326538 0.00322358 0.00318812 0.00315904 0.00313638 0.00312018 0.00311045 0.0031072 
0.00265006 0.00265303 0.00266192 0.00267674 0.00269747 0.0027241 0.00275662 0.00279501 0.00283924 0.00288928 0.00294509 0.00300661 0.00307381 0.0031466 0.00322491 0.00330865 0.0033977 0.00349194 0.00359124 0.00369541 0.00380429 0.00391764 0.00403525 0.00415684 0.00428212 0.00441076 0.00454241 0.00467666 0.00481309 0.00495125 0.00509062 0.00523067 0.00537084 0.00551051 0.00564906 0.00578581 0.00592007 0.00605113 0.00617826 0.00630072 0.00641777 0.00652867 0.00663268 0.00672912 0.00681731 0.00689661 0.00696646 0.00702633 0.00707578 0.00711443 0.00714199 0.00715826 0.00716313 0.00715657 0.00713868 0.0071096 0.0070696 0.00701902 0.00695827 0.00688785 0.00680831 0.00672027 0.00662437 0.00652131 0.00641182 0.00629663 0.0061765 0.00605218 0.00592442 0.00579396 0.00566152 0.0055278 0.00539348 0.0052592 0.00512557 0.00499318 0.00486257 0.00473425 0.00460869 0.00448633 0.00436758 0.00425281 0.00414234 0.00403649 0.00393553 0.00383971 0.00374923 0.00366431 0.00358511 0.00351177 0.00344444 0.00338323 0.00332822 0.00327951 0.00323717 0.00320125 0.0031718 0.00314886 0.00313245 0.0031226 0.00311932 
0.00266288 0.00266588 0.0026749 0.00268993 0.00271097 0.00273799 0.00277099 0.00280996 0.00285485 0.00290566 0.00296234 0.00302484 0.00309311 0.0031671 0.00324672 0.00333189 0.00342251 0.00351844 0.00361956 0.00372571 0.00383669 0.00395231 0.00407233 0.00419648 0.00432448 0.00445601 0.00459069 0.00472813 0.00486792 0.00500957 0.00515258 0.00529641 0.00544047 0.00558415 0.00572679 0.0058677 0.00600617 0.00614146 0.0062728 0.00639942 0.00652054 0.00663538 0.00674317 0.00684317 0.00693466 0.00701698 0.00708951 0.00715169 0.00720305 0.00724318 0.00727178 0.00728864 0.00729362 0.00728672 0.00726801 0.00723768 0.007196 0.00714333 0.00708012 0.0070069 0.00692426 0.00683284 0.00673335 0.00662651 0.00651309 0.00639387 0.00626963 0.00614116 0.00600925 0.00587466 0.00573815 0.00560042 0.00546218 0.00532409 0.00518677 0.00505083 0.0049168 0.00478522 0.00465655 0.00453124 0.0044097 0.0042923 0.00417936 0.0040712 0.00396808 0.00387026 0.00377794 0.00369131 0.00361056 0.00353581 0.0034672 0.00340485 0.00334883 0.00329924 0.00325614 0.00321958 0.00318961 0.00316627 0.00314958 0.00313955 0.00313621 
0.00267927 0.00268233 0.00269152 0.00270682 0.00272824 0.00275577 0.00278939 0.00282909 0.00287484 0.00292663 0.00298442 0.00304818 0.00311784 0.00319337 0.00327468 0.00336169 0.00345431 0.00355242 0.00365589 0.00376457 0.00387827 0.0039968 0.00411993 0.0042474 0.00437891 0.00451415 0.00465276 0.00479433 0.00493845 0.00508463 0.00523237 0.00538109 0.00553022 0.0056791 0.00582707 0.00597341 0.00611738 0.00625818 0.00639503 0.00652709 0.00665355 0.00677356 0.0068863 0.00699098 0.00708682 0.00717309 0.00724914 0.00731435 0.00736822 0.0074103 0.00744027 0.00745788 0.00746301 0.00745564 0.00743586 0.00740386 0.00735996 0.00730454 0.00723809 0.00716119 0.00707446 0.00697862 0.00687441 0.00676261 0.00664405 0.00651955 0.00638994 0.00625607 0.00611875 0.00597878 0.00583696 0.00569402 0.00555069 0.00540766 0.00526556 0.00512501 0.00498656 0.00485076 0.00471807 0.00458895 0.0044638 0.004343 0.00422688 0.00411573 0.00400984 0.00390944 0.00381474 0.00372593 0.00364318 0.00356661 0.00349637 0.00343254 0.00337523 0.0033245 0.00328042 0.00324304 0.00321241 0.00318855 0.00317149 0.00316125 0.00315783 
0.00269918 0.00270231 0.0027117 0.00272734 0.00274923 0.00277737 0.00281174 0.00285234 0.00289914 0.00295213 0.00301128 0.00307656 0.00314792 0.00322532 0.00330869 0.00339796 0.00349303 0.00359381 0.00370016 0.00381193 0.00392897 0.00405107 0.004178 0.00430953 0.00444536 0.00458517 0.0047286 0.00487527 0.00502472 0.0051765 0.00533006 0.00548484 0.00564023 0.00579557 0.00595016 0.00610325 0.00625405 0.00640173 0.00654545 0.00668432 0.00681745 0.00694394 0.00706289 0.00717343 0.00727473 0.00736597 0.00744644 0.00751546 0.00757248 0.007617 0.00764867 0.00766722 0.00767252 0.00766454 0.00764339 0.0076093 0.00756259 0.0075037 0.00743317 0.00735163 0.00725978 0.00715838 0.00704826 0.00693026 0.00680527 0.00667417 0.00653788 0.00639727 0.00625321 0.00610657 0.00595816 0.00580877 0.00565914 0.00551 0.00536199 0.00521576 0.00507187 0.00493086 0.00479322 0.00465941 0.00452984 0.00440487 0.00428483 0.00417004 0.00406074 0.00395719 0.00385957 0.00376809 0.00368288 0.0036041 0.00353184 0.00346623 0.00340732 0.00335521 0.00330994 0.00327156 0.00324012 0.00321563 0.00319812 0.00318761 0.00318411 
0.00272254 0.00272575 0.00273537 0.00275141 0.00277385 0.00280271 0.00283797 0.00287962 0.00292766 0.00298207 0.00304283 0.0031099 0.00318327 0.00326288 0.00334869 0.00344062 0.00353859 0.00364251 0.00375226 0.00386771 0.00398869 0.00411502 0.00424648 0.00438282 0.00452378 0.00466902 0.00481821 0.00497093 0.00512676 0.00528521 0.00544575 0.00560779 0.0057707 0.0059338 0.00609636 0.00625758 0.00641664 0.00657265 0.00672469 0.00687182 0.00701307 0.00714744 0.00727395 0.00739165 0.00749959 0.0075969 0.00768276 0.00775643 0.00781728 0.00786478 0.00789851 0.00791819 0.00792367 0.00791494 0.0078921 0.00785541 0.00780525 0.0077421 0.00766657 0.00757936 0.00748125 0.00737308 0.00725576 0.00713022 0.00699742 0.00685834 0.00671395 0.0065652 0.00641302 0.00625834 0.00610201 0.00594486 0.00578768 0.00563121 0.00547614 0.00532312 0.00517272 0.00502551 0.00488199 0.00474259 0.00460775 0.00447783 0.00435315 0.00423402 0.00412069 0.0040134 0.00391233 0.00381768 0.00372958 0.00364817 0.00357354 0.00350581 0.00344503 0.00339128 0.0033446 0.00330504 0.00327263 0.0032474 0.00322937 0.00321854 0.00321493 
0.00274925 0.00275255 0.00276245 0.00277894 0.00280202 0.00283171 0.00286799 0.00291086 0.00296032 0.00301635 0.00307896 0.00314811 0.00322378 0.00330594 0.00339455 0.00348955 0.00359087 0.00369843 0.00381211 0.0039318 0.00405734 0.00418856 0.00432526 0.0044672 0.0046141 0.00476566 0.00492153 0.00508132 0.00524458 0.00541083 0.00557953 0.00575008 0.00592182 0.00609405 0.006266 0.00643683 0.00660566 0.00677154 0.00693348 0.00709044 0.00724136 0.00738514 0.0075207 0.00764695 0.00776286 0.00786743 0.00795974 0.00803898 0.00810441 0.00815545 0.00819164 0.00821265 0.00821832 0.00820864 0.00818374 0.00814391 0.00808958 0.00802131 0.00793977 0.00784575 0.00774013 0.00762386 0.00749794 0.0073634 0.00722131 0.00707274 0.00691875 0.00676037 0.0065986 0.00643443 0.00626877 0.00610251 0.00593647 0.00577142 0.00560808 0.00544712 0.00528914 0.0051347 0.00498431 0.00483843 0.00469747 0.00456179 0.00443173 0.00430758 0.00418958 0.00407796 0.00397291 0.00387459 0.00378315 0.0036987 0.00362134 0.00355116 0.00348822 0.00343258 0.00338428 0.00334336 0.00330985 0.00328377 0.00326513 0.00325394 0.00325021 
0.00277922 0.00278262 0.00279282 0.00280983 0.00283363 0.00286425 0.00290168 0.00294593 0.00299699 0.00305486 0.00311955 0.00319105 0.00326933 0.00335438 0.00344616 0.00354463 0.00364974 0.00376142 0.00387956 0.00400406 0.00413479 0.00427158 0.00441424 0.00456255 0.00471624 0.00487501 0.00503853 0.00520641 0.0053782 0.00555341 0.0057315 0.00591185 0.0060938 0.00627661 0.00645945 0.00664147 0.0068217 0.00699912 0.00717265 0.00734116 0.00750345 0.00765832 0.00780454 0.0079409 0.00806622 0.00817937 0.00827931 0.00836511 0.00843596 0.00849117 0.00853023 0.00855278 0.00855863 0.00854779 0.00852041 0.00847682 0.00841751 0.00834313 0.00825445 0.00815237 0.00803787 0.00791203 0.00777597 0.00763086 0.00747787 0.00731819 0.00715297 0.00698335 0.00681042 0.00663523 0.00645876 0.00628196 0.00610568 0.00593073 0.00575788 0.00558779 0.0054211 0.00525838 0.00510014 0.00494684 0.00479889 0.00465665 0.00452046 0.00439058 0.00426727 0.00415073 0.00404115 0.00393868 0.00384344 0.00375556 0.0036751 0.00360215 0.00353676 0.00347899 0.00342886 0.0033864 0.00335164 0.00332459 0.00330526 0.00329366 0.00328979 
0.00281233 0.00281584 0.00282639 0.00284396 0.00286857 0.00290022 0.00293893 0.0029847 0.00303755 0.00309747 0.00316449 0.00323859 0.00331977 0.00340804 0.00350336 0.00360572 0.00371506 0.00383134 0.00395447 0.00408436 0.0042209 0.00436393 0.00451328 0.00466875 0.00483008 0.00499698 0.00516913 0.00534614 0.00552758 0.00571296 0.00590173 0.00609326 0.00628686 0.00648177 0.00667713 0.00687201 0.00706539 0.00725616 0.00744314 0.00762507 0.00780062 0.00796844 0.00812712 0.00827531 0.00841164 0.00853484 0.00864372 0.0087372 0.00881436 0.00887442 0.0089168 0.00894111 0.00894713 0.00893487 0.00890451 0.00885646 0.00879127 0.00870968 0.0086126 0.00850103 0.00837613 0.00823909 0.0080912 0.00793377 0.00776811 0.00759555 0.00741735 0.00723477 0.00704899 0.00686115 0.00667229 0.00648343 0.00629546 0.00610926 0.00592558 0.00574514 0.00556859 0.00539649 0.00522938 0.00506771 0.00491188 0.00476227 0.00461917 0.00448287 0.0043536 0.00423156 0.0041169 0.00400978 0.00391031 0.00381857 0.00373466 0.00365862 0.0035905 0.00353034 0.00347817 0.003434 0.00339784 0.00336972 0.00334962 0.00333756 0.00333354 
0.00284845 0.00285209 0.002863 0.0028812 0.00290669 0.00293949 0.0029796 0.00302705 0.00308186 0.00314404 0.0032136 0.00329057 0.00337496 0.00346677 0.003566 0.00367263 0.00378664 0.003908 0.00403665 0.00417251 0.00431548 0.00446544 0.00462222 0.00478564 0.00495547 0.00513143 0.00531321 0.00550045 0.0056927 0.0058895 0.00609028 0.00629442 0.0065012 0.00670983 0.00691943 0.00712899 0.00733742 0.00754352 0.00774599 0.00794341 0.00813431 0.00831714 0.00849031 0.00865224 0.00880139 0.00893628 0.00905554 0.00915793 0.00924241 0.00930808 0.00935428 0.00938056 0.0093867 0.00937271 0.00933882 0.00928548 0.00921337 0.00912334 0.00901642 0.0088938 0.00875677 0.00860672 0.00844512 0.00827344 0.00809318 0.00790579 0.00771271 0.0075153 0.00731485 0.0071126 0.00690969 0.00670716 0.00650599 0.00630708 0.00611122 0.00591915 0.00573154 0.00554895 0.00537192 0.0052009 0.0050363 0.00487847 0.00472771 0.00458428 0.00444839 0.00432024 0.00419997 0.0040877 0.00398354 0.00388756 0.00379983 0.00372038 0.00364925 0.00358647 0.00353204 0.00348598 0.00344829 0.00341898 0.00339805 0.00338548 0.0033813 
0.00288744 0.00289121 0.00290254 0.00292141 0.00294786 0.0029819 0.00302354 0.00307282 0.00312975 0.00319438 0.00326673 0.00334683 0.00343471 0.00353038 0.00363387 0.00374517 0.0038643 0.00399122 0.0041259 0.0042683 0.00441833 0.00457589 0.00474084 0.00491303 0.00509223 0.0052782 0.00547064 0.0056692 0.00587348 0.00608298 0.00629717 0.00651542 0.00673699 0.00696108 0.00718675 0.00741295 0.0076385 0.0078621 0.0080823 0.00829753 0.00850611 0.00870627 0.0088962 0.00907405 0.00923803 0.00938645 0.00951771 0.0096304 0.0097233 0.0097954 0.00984594 0.00987443 0.00988061 0.00986452 0.00982644 0.00976691 0.00968669 0.0095868 0.00946843 0.00933295 0.00918186 0.00901678 0.00883936 0.0086513 0.00845428 0.00824995 0.0080399 0.00782562 0.00760856 0.00739003 0.00717126 0.00695337 0.00673739 0.00652426 0.0063148 0.00610978 0.00590985 0.00571562 0.0055276 0.00534625 0.00517196 0.00500506 0.00484585 0.00469457 0.00455142 0.00441656 0.00429013 0.00417223 0.00406294 0.00396231 0.0038704 0.00378723 0.00371281 0.00364716 0.00359028 0.00354216 0.0035028 0.0034722 0.00345035 0.00343724 0.00343287 
0.00292914 0.00293306 0.00294482 0.00296443 0.00299191 0.00302728 0.00307057 0.00312182 0.00318106 0.00324833 0.00332369 0.00340717 0.00349881 0.00359867 0.00370676 0.00382313 0.00394779 0.00408075 0.00422199 0.0043715 0.00452921 0.00469505 0.00486892 0.00505067 0.00524013 0.00543707 0.00564122 0.00585225 0.00606977 0.00629332 0.00652238 0.0067563 0.00699437 0.00723575 0.00747947 0.00772443 0.00796936 0.00821285 0.00845328 0.0086889 0.00891779 0.00913791 0.00934714 0.00954336 0.00972447 0.00988849 0.0100336 0.0101581 0.0102606 0.0103401 0.0103955 0.0104264 0.0104326 0.0104139 0.0103709 0.0103041 0.0102144 0.0101031 0.0099714 0.00982104 0.00965371 0.0094713 0.00927571 0.00906888 0.00885273 0.00862912 0.0083998 0.00816647 0.00793067 0.00769384 0.0074573 0.00722225 0.00698977 0.00676083 0.00653629 0.00631693 0.00610341 0.00589635 0.00569624 0.00550353 0.00531861 0.0051418 0.00497336 0.00481351 0.00466243 0.00452028 0.00438714 0.00426311 0.00414825 0.00404258 0.00394614 0.00385894 0.00378096 0.00371221 0.00365267 0.00360233 0.00356117 0.00352917 0.00350632 0.00349262 0.00348805 
0.00297339 0.00297746 0.00298969 0.00301008 0.00303866 0.00307546 0.00312052 0.00317387 0.00323558 0.00330569 0.00338426 0.00347137 0.00356706 0.0036714 0.00378445 0.00390626 0.00403688 0.00417634 0.00432465 0.00448182 0.00464784 0.00482264 0.00500617 0.00519831 0.00539891 0.00560779 0.0058247 0.00604936 0.00628139 0.00652038 0.0067658 0.00701704 0.0072734 0.00753402 0.00779791 0.00806392 0.00833071 0.00859671 0.00886016 0.00911907 0.00937124 0.0096143 0.00984576 0.0100631 0.010264 0.0104459 0.0106069 0.0107449 0.0108585 0.0109462 0.0110072 0.0110408 0.0110467 0.011025 0.0109761 0.0109008 0.0108001 0.0106755 0.0105284 0.0103609 0.0101748 0.00997248 0.00975607 0.00952781 0.00928989 0.00904441 0.00879334 0.00853854 0.00828172 0.00802442 0.00776808 0.00751395 0.00726317 0.00701675 0.00677559 0.00654045 0.00631203 0.0060909 0.00587758 0.00567249 0.005476 0.0052884 0.00510993 0.00494079 0.00478114 0.00463109 0.00449071 0.00436007 0.0042392 0.00412811 0.0040268 0.00393525 0.00385345 0.00378137 0.00371898 0.00366625 0.00362315 0.00358965 0.00356575 0.00355141 0.00354663 
0.00301999 0.00302423 0.00303695 0.00305818 0.00308793 0.00312625 0.00317318 0.00322878 0.0032931 0.00336623 0.00344823 0.0035392 0.0036392 0.00374833 0.00386666 0.00399429 0.00413128 0.00427769 0.00443357 0.00459897 0.0047739 0.00495834 0.00515226 0.00535559 0.00556823 0.00579003 0.00602078 0.00626023 0.00650808 0.00676391 0.00702725 0.00729754 0.00757406 0.00785599 0.00814232 0.00843185 0.00872318 0.00901462 0.0093042 0.00958968 0.00986852 0.0101379 0.010395 0.0106367 0.0108601 0.0110627 0.0112417 0.0113952 0.0115213 0.0116184 0.0116855 0.011722 0.0117274 0.0117021 0.0116464 0.0115612 0.0114477 0.0113077 0.0111428 0.0109555 0.0107479 0.0105227 0.0102825 0.0100298 0.00976718 0.00949696 0.0092214 0.00894252 0.0086622 0.00838211 0.00810378 0.00782854 0.00755759 0.00729195 0.00703254 0.00678015 0.00653545 0.00629901 0.00607133 0.00585281 0.00564378 0.00544452 0.00525524 0.00507609 0.00490721 0.00474867 0.00460053 0.0044628 0.0043355 0.0042186 0.00411208 0.0040159 0.00393001 0.00385438 0.00378895 0.00373367 0.0036885 0.00365342 0.00362838 0.00361336 0.00360836 
0.00306876 0.00307317 0.00308642 0.00310853 0.00313952 0.00317944 0.00322835 0.00328631 0.00335341 0.00342972 0.00351535 0.0036104 0.00371497 0.00382917 0.00395312 0.00408691 0.00423067 0.00438448 0.00454843 0.00472259 0.00490702 0.00510176 0.00530681 0.00552214 0.00574771 0.0059834 0.00622907 0.00648451 0.00674947 0.0070236 0.00730647 0.00759756 0.00789621 0.00820162 0.00851279 0.00882852 0.00914734 0.00946743 0.00978664 0.0101024 0.0104118 0.0107115 0.010998 0.0112676 0.0115171 0.0117431 0.0119428 0.0121138 0.012254 0.0123617 0.0124356 0.0124751 0.0124799 0.0124501 0.0123864 0.0122898 0.0121616 0.0120037 0.0118184 0.0116082 0.0113759 0.0111245 0.0108571 0.0105766 0.010286 0.00998791 0.00968484 0.00937903 0.00907254 0.00876718 0.00846454 0.00816605 0.00787293 0.00758625 0.00730692 0.00703574 0.00677335 0.00652033 0.00627712 0.0060441 0.00582158 0.00560978 0.00540889 0.00521902 0.00504027 0.00487266 0.00471623 0.00457095 0.0044368 0.00431372 0.00420167 0.00410056 0.00401035 0.00393095 0.00386229 0.00380432 0.00375697 0.00372019 0.00369395 0.00367822 0.00367298 
0.00311948 0.00312408 0.00313788 0.00316091 0.0031932 0.0032348 0.00328579 0.00334624 0.00341625 0.00349591 0.00358536 0.0036847 0.00379408 0.00391363 0.00404349 0.0041838 0.00433471 0.00449634 0.00466883 0.00485229 0.00504682 0.0052525 0.00546939 0.00569752 0.00593688 0.00618744 0.0064491 0.00672172 0.00700512 0.00729901 0.00760304 0.00791676 0.00823956 0.00857072 0.00890928 0.00925407 0.00960356 0.00995586 0.0103086 0.0106589 0.0110033 0.0113379 0.0116582 0.0119601 0.0122392 0.012492 0.0127152 0.0129061 0.0130621 0.0131816 0.0132631 0.0133058 0.0133095 0.0132745 0.0132015 0.0130916 0.0129465 0.0127682 0.0125592 0.0123227 0.012062 0.0117805 0.0114821 0.0111701 0.0108478 0.0105183 0.0101844 0.00984863 0.0095131 0.00917978 0.00885038 0.00852637 0.00820901 0.00789939 0.00759841 0.00730685 0.00702535 0.00675443 0.00649451 0.00624593 0.00600894 0.00578374 0.00557045 0.00536916 0.00517989 0.00500265 0.00483742 0.00468413 0.00454273 0.00441312 0.00429522 0.00418892 0.00409414 0.00401076 0.00393871 0.0038779 0.00382825 0.0037897 0.0037622 0.00374572 0.00374022 