<?xml version="1.0"?>
<VTKFile type="StructuredGrid" version="0.1">
    <StructuredGrid WholeExtent="0 100 0 100 0 0">
        <Piece Extent="0 100 0 100 0 0">
            <Points>
                <DataArray type="Float64" NumberOfComponents="3" format="ascii">
-15 -15 0
-15 -14.7 0
-15 -14.4 0
-15 -14.1 0
-15 -13.8 0
-15 -13.5 0
-15 -13.2 0
-15 -12.9 0
-15 -12.6 0
-15 -12.3 0
-15 -12 0
-15 -11.7 0
-15 -11.4 0
-15 -11.1 0
-15 -10.8 0
-15 -10.5 0
-15 -10.2 0
-15 -9.9 0
-15 -9.6 0
-15 -9.3 0
-15 -9 0
-15 -8.7 0
-15 -8.4 0
-15 -8.1 0
-15 -7.8 0
-15 -7.5 0
-15 -7.2 0
-15 -6.9 0
-15 -6.6 0
-15 -6.3 0
-15 -6 0
-15 -5.7 0
-15 -5.4 0
-15 -5.1 0
-15 -4.8 0
-15 -4.5 0
-15 -4.2 0
-15 -3.9 0
-15 -3.6 0
-15 -3.3 0
-15 -3 0
-15 -2.7 0
-15 -2.4 0
-15 -2.1 0
-15 -1.8 0
-15 -1.5 0
-15 -1.2 0
-15 -0.9 0
-15 -0.6 0
-15 -0.3 0
-15 0 0
-15 0.3 0
-15 0.6 0
-15 0.9 0
-15 1.2 0
-15 1.5 0
-15 1.8 0
-15 2.1 0
-15 2.4 0
-15 2.7 0
-15 3 0
-15 3.3 0
-15 3.6 0
-15 3.9 0
-15 4.2 0
-15 4.5 0
-15 4.8 0
-15 5.1 0
-15 5.4 0
-15 5.7 0
-15 6 0
-15 6.3 0
-15 6.6 0
-15 6.9 0
-15 7.2 0
-15 7.5 0
-15 7.8 0
-15 8.1 0
-15 8.4 0
-15 8.7 0
-15 9 0
-15 9.3 0
-15 9.6 0
-15 9.9 0
-15 10.2 0
-15 10.5 0
-15 10.8 0
-15 11.1 0
-15 11.4 0
-15 11.7 0
-15 12 0
-15 12.3 0
-15 12.6 0
-15 12.9 0
-15 13.2 0
-15 13.5 0
-15 13.8 0
-15 14.1 0
-15 14.4 0
-15 14.7 0
-15 15 0
-14.7 -15 0
-14.7 -14.7 0
-14.7 -14.4 0
-14.7 -14.1 0
-14.7 -13.8 0
-14.7 -13.5 0
-14.7 -13.2 0
-14.7 -12.9 0
-14.7 -12.6 0
-14.7 -12.3 0
-14.7 -12 0
-14.7 -11.7 0
-14.7 -11.4 0
-14.7 -11.1 0
-14.7 -10.8 0
-14.7 -10.5 0
-14.7 -10.2 0
-14.7 -9.9 0
-14.7 -9.6 0
-14.7 -9.3 0
-14.7 -9 0
-14.7 -8.7 0
-14.7 -8.4 0
-14.7 -8.1 0
-14.7 -7.8 0
-14.7 -7.5 0
-14.7 -7.2 0
-14.7 -6.9 0
-14.7 -6.6 0
-14.7 -6.3 0
-14.7 -6 0
-14.7 -5.7 0
-14.7 -5.4 0
-14.7 -5.1 0
-14.7 -4.8 0
-14.7 -4.5 0
-14.7 -4.2 0
-14.7 -3.9 0
-14.7 -3.6 0
-14.7 -3.3 0
-14.7 -3 0
-14.7 -2.7 0
-14.7 -2.4 0
-14.7 -2.1 0
-14.7 -1.8 0
-14.7 -1.5 0
-14.7 -1.2 0
-14.7 -0.9 0
-14.7 -0.6 0
-14.7 -0.3 0
-14.7 0 0
-14.7 0.3 0
-14.7 0.6 0
-14.7 0.9 0
-14.7 1.2 0
-14.7 1.5 0
-14.7 1.8 0
-14.7 2.1 0
-14.7 2.4 0
-14.7 2.7 0
-14.7 3 0
-14.7 3.3 0
-14.7 3.6 0
-14.7 3.9 0
-14.7 4.2 0
-14.7 4.5 0
-14.7 4.8 0
-14.7 5.1 0
-14.7 5.4 0
-14.7 5.7 0
-14.7 6 0
-14.7 6.3 0
-14.7 6.6 0
-14.7 6.9 0
-14.7 7.2 0
-14.7 7.5 0
-14.7 7.8 0
-14.7 8.1 0
-14.7 8.4 0
-14.7 8.7 0
-14.7 9 0
-14.7 9.3 0
-14.7 9.6 0
-14.7 9.9 0
-14.7 10.2 0
-14.7 10.5 0
-14.7 10.8 0
-14.7 11.1 0
-14.7 11.4 0
-14.7 11.7 0
-14.7 12 0
-14.7 12.3 0
-14.7 12.6 0
-14.7 12.9 0
-14.7 13.2 0
-14.7 13.5 0
-14.7 13.8 0
-14.7 14.1 0
-14.7 14.4 0
-14.7 14.7 0
-14.7 15 0
-14.4 -15 0
-14.4 -14.7 0
-14.4 -14.4 0
-14.4 -14.1 0
-14.4 -13.8 0
-14.4 -13.5 0
-14.4 -13.2 0
-14.4 -12.9 0
-14.4 -12.6 0
-14.4 -12.3 0
-14.4 -12 0
-14.4 -11.7 0
-14.4 -11.4 0
-14.4 -11.1 0
-14.4 -10.8 0
-14.4 -10.5 0
-14.4 -10.2 0
-14.4 -9.9 0
-14.4 -9.6 0
-14.4 -9.3 0
-14.4 -9 0
-14.4 -8.7 0
-14.4 -8.4 0
-14.4 -8.1 0
-14.4 -7.8 0
-14.4 -7.5 0
-14.4 -7.2 0
-14.4 -6.9 0
-14.4 -6.6 0
-14.4 -6.3 0
-14.4 -6 0
-14.4 -5.7 0
-14.4 -5.4 0
-14.4 -5.1 0
-14.4 -4.8 0
-14.4 -4.5 0
-14.4 -4.2 0
-14.4 -3.9 0
-14.4 -3.6 0
-14.4 -3.3 0
-14.4 -3 0
-14.4 -2.7 0
-14.4 -2.4 0
-14.4 -2.1 0
-14.4 -1.8 0
-14.4 -1.5 0
-14.4 -1.2 0
-14.4 -0.9 0
-14.4 -0.6 0
-14.4 -0.3 0
-14.4 0 0
-14.4 0.3 0
-14.4 0.6 0
-14.4 0.9 0
-14.4 1.2 0
-14.4 1.5 0
-14.4 1.8 0
-14.4 2.1 0
-14.4 2.4 0
-14.4 2.7 0
-14.4 3 0
-14.4 3.3 0
-14.4 3.6 0
-14.4 3.9 0
-14.4 4.2 0
-14.4 4.5 0
-14.4 4.8 0
-14.4 5.1 0
-14.4 5.4 0
-14.4 5.7 0
-14.4 6 0
-14.4 6.3 0
-14.4 6.6 0
-14.4 6.9 0
-14.4 7.2 0
-14.4 7.5 0
-14.4 7.8 0
-14.4 8.1 0
-14.4 8.4 0
-14.4 8.7 0
-14.4 9 0
-14.4 9.3 0
-14.4 9.6 0
-14.4 9.9 0
-14.4 10.2 0
-14.4 10.5 0
-14.4 10.8 0
-14.4 11.1 0
-14.4 11.4 0
-14.4 11.7 0
-14.4 12 0
-14.4 12.3 0
-14.4 12.6 0
-14.4 12.9 0
-14.4 13.2 0
-14.4 13.5 0
-14.4 13.8 0
-14.4 14.1 0
-14.4 14.4 0
-14.4 14.7 0
-14.4 15 0
-14.1 -15 0
-14.1 -14.7 0
-14.1 -14.4 0
-14.1 -14.1 0
-14.1 -13.8 0
-14.1 -13.5 0
-14.1 -13.2 0
-14.1 -12.9 0
-14.1 -12.6 0
-14.1 -12.3 0
-14.1 -12 0
-14.1 -11.7 0
-14.1 -11.4 0
-14.1 -11.1 0
-14.1 -10.8 0
-14.1 -10.5 0
-14.1 -10.2 0
-14.1 -9.9 0
-14.1 -9.6 0
-14.1 -9.3 0
-14.1 -9 0
-14.1 -8.7 0
-14.1 -8.4 0
-14.1 -8.1 0
-14.1 -7.8 0
-14.1 -7.5 0
-14.1 -7.2 0
-14.1 -6.9 0
-14.1 -6.6 0
-14.1 -6.3 0
-14.1 -6 0
-14.1 -5.7 0
-14.1 -5.4 0
-14.1 -5.1 0
-14.1 -4.8 0
-14.1 -4.5 0
-14.1 -4.2 0
-14.1 -3.9 0
-14.1 -3.6 0
-14.1 -3.3 0
-14.1 -3 0
-14.1 -2.7 0
-14.1 -2.4 0
-14.1 -2.1 0
-14.1 -1.8 0
-14.1 -1.5 0
-14.1 -1.2 0
-14.1 -0.9 0
-14.1 -0.6 0
-14.1 -0.3 0
-14.1 0 0
-14.1 0.3 0
-14.1 0.6 0
-14.1 0.9 0
-14.1 1.2 0
-14.1 1.5 0
-14.1 1.8 0
-14.1 2.1 0
-14.1 2.4 0
-14.1 2.7 0
-14.1 3 0
-14.1 3.3 0
-14.1 3.6 0
-14.1 3.9 0
-14.1 4.2 0
-14.1 4.5 0
-14.1 4.8 0
-14.1 5.1 0
-14.1 5.4 0
-14.1 5.7 0
-14.1 6 0
-14.1 6.3 0
-14.1 6.6 0
-14.1 6.9 0
-14.1 7.2 0
-14.1 7.5 0
-14.1 7.8 0
-14.1 8.1 0
-14.1 8.4 0
-14.1 8.7 0
-14.1 9 0
-14.1 9.3 0
-14.1 9.6 0
-14.1 9.9 0
-14.1 10.2 0
-14.1 10.5 0
-14.1 10.8 0
-14.1 11.1 0
-14.1 11.4 0
-14.1 11.7 0
-14.1 12 0
-14.1 12.3 0
-14.1 12.6 0
-14.1 12.9 0
-14.1 13.2 0
-14.1 13.5 0
-14.1 13.8 0
-14.1 14.1 0
-14.1 14.4 0
-14.1 14.7 0
-14.1 15 0
-13.8 -15 0
-13.8 -14.7 0
-13.8 -14.4 0
-13.8 -14.1 0
-13.8 -13.8 0
-13.8 -13.5 0
-13.8 -13.2 0
-13.8 -12.9 0
-13.8 -12.6 0
-13.8 -12.3 0
-13.8 -12 0
-13.8 -11.7 0
-13.8 -11.4 0
-13.8 -11.1 0
-13.8 -10.8 0
-13.8 -10.5 0
-13.8 -10.2 0
-13.8 -9.9 0
-13.8 -9.6 0
-13.8 -9.3 0
-13.8 -9 0
-13.8 -8.7 0
-13.8 -8.4 0
-13.8 -8.1 0
-13.8 -7.8 0
-13.8 -7.5 0
-13.8 -7.2 0
-13.8 -6.9 0
-13.8 -6.6 0
-13.8 -6.3 0
-13.8 -6 0
-13.8 -5.7 0
-13.8 -5.4 0
-13.8 -5.1 0
-13.8 -4.8 0
-13.8 -4.5 0
-13.8 -4.2 0
-13.8 -3.9 0
-13.8 -3.6 0
-13.8 -3.3 0
-13.8 -3 0
-13.8 -2.7 0
-13.8 -2.4 0
-13.8 -2.1 0
-13.8 -1.8 0
-13.8 -1.5 0
-13.8 -1.2 0
-13.8 -0.9 0
-13.8 -0.6 0
-13.8 -0.3 0
-13.8 0 0
-13.8 0.3 0
-13.8 0.6 0
-13.8 0.9 0
-13.8 1.2 0
-13.8 1.5 0
-13.8 1.8 0
-13.8 2.1 0
-13.8 2.4 0
-13.8 2.7 0
-13.8 3 0
-13.8 3.3 0
-13.8 3.6 0
-13.8 3.9 0
-13.8 4.2 0
-13.8 4.5 0
-13.8 4.8 0
-13.8 5.1 0
-13.8 5.4 0
-13.8 5.7 0
-13.8 6 0
-13.8 6.3 0
-13.8 6.6 0
-13.8 6.9 0
-13.8 7.2 0
-13.8 7.5 0
-13.8 7.8 0
-13.8 8.1 0
-13.8 8.4 0
-13.8 8.7 0
-13.8 9 0
-13.8 9.3 0
-13.8 9.6 0
-13.8 9.9 0
-13.8 10.2 0
-13.8 10.5 0
-13.8 10.8 0
-13.8 11.1 0
-13.8 11.4 0
-13.8 11.7 0
-13.8 12 0
-13.8 12.3 0
-13.8 12.6 0
-13.8 12.9 0
-13.8 13.2 0
-13.8 13.5 0
-13.8 13.8 0
-13.8 14.1 0
-13.8 14.4 0
-13.8 14.7 0
-13.8 15 0
-13.5 -15 0
-13.5 -14.7 0
-13.5 -14.4 0
-13.5 -14.1 0
-13.5 -13.8 0
-13.5 -13.5 0
-13.5 -13.2 0
-13.5 -12.9 0
-13.5 -12.6 0
-13.5 -12.3 0
-13.5 -12 0
-13.5 -11.7 0
-13.5 -11.4 0
-13.5 -11.1 0
-13.5 -10.8 0
-13.5 -10.5 0
-13.5 -10.2 0
-13.5 -9.9 0
-13.5 -9.6 0
-13.5 -9.3 0
-13.5 -9 0
-13.5 -8.7 0
-13.5 -8.4 0
-13.5 -8.1 0
-13.5 -7.8 0
-13.5 -7.5 0
-13.5 -7.2 0
-13.5 -6.9 0
-13.5 -6.6 0
-13.5 -6.3 0
-13.5 -6 0
-13.5 -5.7 0
-13.5 -5.4 0
-13.5 -5.1 0
-13.5 -4.8 0
-13.5 -4.5 0
-13.5 -4.2 0
-13.5 -3.9 0
-13.5 -3.6 0
-13.5 -3.3 0
-13.5 -3 0
-13.5 -2.7 0
-13.5 -2.4 0
-13.5 -2.1 0
-13.5 -1.8 0
-13.5 -1.5 0
-13.5 -1.2 0
-13.5 -0.9 0
-13.5 -0.6 0
-13.5 -0.3 0
-13.5 0 0
-13.5 0.3 0
-13.5 0.6 0
-13.5 0.9 0
-13.5 1.2 0
-13.5 1.5 0
-13.5 1.8 0
-13.5 2.1 0
-13.5 2.4 0
-13.5 2.7 0
-13.5 3 0
-13.5 3.3 0
-13.5 3.6 0
-13.5 3.9 0
-13.5 4.2 0
-13.5 4.5 0
-13.5 4.8 0
-13.5 5.1 0
-13.5 5.4 0
-13.5 5.7 0
-13.5 6 0
-13.5 6.3 0
-13.5 6.6 0
-13.5 6.9 0
-13.5 7.2 0
-13.5 7.5 0
-13.5 7.8 0
-13.5 8.1 0
-13.5 8.4 0
-13.5 8.7 0
-13.5 9 0
-13.5 9.3 0
-13.5 9.6 0
-13.5 9.9 0
-13.5 10.2 0
-13.5 10.5 0
-13.5 10.8 0
-13.5 11.1 0
-13.5 11.4 0
-13.5 11.7 0
-13.5 12 0
-13.5 12.3 0
-13.5 12.6 0
-13.5 12.9 0
-13.5 13.2 0
-13.5 13.5 0
-13.5 13.8 0
-13.5 14.1 0
-13.5 14.4 0
-13.5 14.7 0
-13.5 15 0
-13.2 -15 0
-13.2 -14.7 0
-13.2 -14.4 0
-13.2 -14.1 0
-13.2 -13.8 0
-13.2 -13.5 0
-13.2 -13.2 0
-13.2 -12.9 0
-13.2 -12.6 0
-13.2 -12.3 0
-13.2 -12 0
-13.2 -11.7 0
-13.2 -11.4 0
-13.2 -11.1 0
-13.2 -10.8 0
-13.2 -10.5 0
-13.2 -10.2 0
-13.2 -9.9 0
-13.2 -9.6 0
-13.2 -9.3 0
-13.2 -9 0
-13.2 -8.7 0
-13.2 -8.4 0
-13.2 -8.1 0
-13.2 -7.8 0
-13.2 -7.5 0
-13.2 -7.2 0
-13.2 -6.9 0
-13.2 -6.6 0
-13.2 -6.3 0
-13.2 -6 0
-13.2 -5.7 0
-13.2 -5.4 0
-13.2 -5.1 0
-13.2 -4.8 0
-13.2 -4.5 0
-13.2 -4.2 0
-13.2 -3.9 0
-13.2 -3.6 0
-13.2 -3.3 0
-13.2 -3 0
-13.2 -2.7 0
-13.2 -2.4 0
-13.2 -2.1 0
-13.2 -1.8 0
-13.2 -1.5 0
-13.2 -1.2 0
-13.2 -0.9 0
-13.2 -0.6 0
-13.2 -0.3 0
-13.2 0 0
-13.2 0.3 0
-13.2 0.6 0
-13.2 0.9 0
-13.2 1.2 0
-13.2 1.5 0
-13.2 1.8 0
-13.2 2.1 0
-13.2 2.4 0
-13.2 2.7 0
-13.2 3 0
-13.2 3.3 0
-13.2 3.6 0
-13.2 3.9 0
-13.2 4.2 0
-13.2 4.5 0
-13.2 4.8 0
-13.2 5.1 0
-13.2 5.4 0
-13.2 5.7 0
-13.2 6 0
-13.2 6.3 0
-13.2 6.6 0
-13.2 6.9 0
-13.2 7.2 0
-13.2 7.5 0
-13.2 7.8 0
-13.2 8.1 0
-13.2 8.4 0
-13.2 8.7 0
-13.2 9 0
-13.2 9.3 0
-13.2 9.6 0
-13.2 9.9 0
-13.2 10.2 0
-13.2 10.5 0
-13.2 10.8 0
-13.2 11.1 0
-13.2 11.4 0
-13.2 11.7 0
-13.2 12 0
-13.2 12.3 0
-13.2 12.6 0
-13.2 12.9 0
-13.2 13.2 0
-13.2 13.5 0
-13.2 13.8 0
-13.2 14.1 0
-13.2 14.4 0
-13.2 14.7 0
-13.2 15 0
-12.9 -15 0
-12.9 -14.7 0
-12.9 -14.4 0
-12.9 -14.1 0
-12.9 -13.8 0
-12.9 -13.5 0
-12.9 -13.2 0
-12.9 -12.9 0
-12.9 -12.6 0
-12.9 -12.3 0
-12.9 -12 0
-12.9 -11.7 0
-12.9 -11.4 0
-12.9 -11.1 0
-12.9 -10.8 0
-12.9 -10.5 0
-12.9 -10.2 0
-12.9 -9.9 0
-12.9 -9.6 0
-12.9 -9.3 0
-12.9 -9 0
-12.9 -8.7 0
-12.9 -8.4 0
-12.9 -8.1 0
-12.9 -7.8 0
-12.9 -7.5 0
-12.9 -7.2 0
-12.9 -6.9 0
-12.9 -6.6 0
-12.9 -6.3 0
-12.9 -6 0
-12.9 -5.7 0
-12.9 -5.4 0
-12.9 -5.1 0
-12.9 -4.8 0
-12.9 -4.5 0
-12.9 -4.2 0
-12.9 -3.9 0
-12.9 -3.6 0
-12.9 -3.3 0
-12.9 -3 0
-12.9 -2.7 0
-12.9 -2.4 0
-12.9 -2.1 0
-12.9 -1.8 0
-12.9 -1.5 0
-12.9 -1.2 0
-12.9 -0.9 0
-12.9 -0.6 0
-12.9 -0.3 0
-12.9 0 0
-12.9 0.3 0
-12.9 0.6 0
-12.9 0.9 0
-12.9 1.2 0
-12.9 1.5 0
-12.9 1.8 0
-12.9 2.1 0
-12.9 2.4 0
-12.9 2.7 0
-12.9 3 0
-12.9 3.3 0
-12.9 3.6 0
-12.9 3.9 0
-12.9 4.2 0
-12.9 4.5 0
-12.9 4.8 0
-12.9 5.1 0
-12.9 5.4 0
-12.9 5.7 0
-12.9 6 0
-12.9 6.3 0
-12.9 6.6 0
-12.9 6.9 0
-12.9 7.2 0
-12.9 7.5 0
-12.9 7.8 0
-12.9 8.1 0
-12.9 8.4 0
-12.9 8.7 0
-12.9 9 0
[...]
            <PointData>
                <DataArray type="Float64" Name="c1" format="ascii">
0.00132718 0.0013285 0.00133246 0.00133905 0.00134828 0.00136013 0.0013746 0.00139167 0.00141132 0.00143355 0.00145832 0.00148561 0.00151539 0.00154762 0.00158226 0.00161926 0.00165857 0.00170011 0.00174382 0.00178962 0.0018374 0.00188707 0.00193852 0.0019916 0.0020462 0.00210214 0.00215926 0.0022174 0.00227634 0.00233589 0.00239582 0.0024559 0.00251588 0.00257551 0.00263453 0.00269265 0.00274959 0.00280507 0.0028588 0.0029105 0.00295986 0.00300662 0.00305049 0.00309121 0.00312854 0.00316224 0.00319209 0.00321792 0.00323954 0.00325683 0.00326967 0.00327798 0.00328172 0.00328087 0.00327544 0.00326549 0.0032511 0.00323239 0.00320949 0.00318257 0.00315184 0.0031175 0.0030798 0.003039 0.00299536 0.00294916 0.00290071 0.00285028 0.00279819 0.00274473 0.00269019 0.00263487 0.00257906 0.00252302 0.00246703 0.00241135 0.00235621 0.00230184 0.00224846 0.00219628 0.00214549 0.00209625 0.00204873 0.00200308 0.00195943 0.00191792 0.00187863 0.00184169 0.00180717 0.00177515 0.00174571 0.00171891 0.0016948 0.00167342 0.00165482 0.00163903 0.00162607 0.00161597 0.00160874 0.0016044 0.00160296 
0.0013282 0.00132953 0.0013335 0.00134011 0.00134936 0.00136124 0.00137575 0.00139286 0.00141257 0.00143485 0.00145969 0.00148706 0.00151693 0.00154925 0.001584 0.00162111 0.00166054 0.00170222 0.00174607 0.00179202 0.00183996 0.00188981 0.00194144 0.00199472 0.00204951 0.00210567 0.00216302 0.00222139 0.00228058 0.00234038 0.00240057 0.00246091 0.00252117 0.00258108 0.00264037 0.00269877 0.002756 0.00281176 0.00286577 0.00291773 0.00296736 0.00301437 0.00305848 0.00309943 0.00313696 0.00317085 0.00320088 0.00322685 0.0032486 0.00326598 0.00327889 0.00328725 0.00329101 0.00329014 0.00328468 0.00327466 0.00326018 0.00324135 0.0032183 0.00319122 0.0031603 0.00312576 0.00308784 0.00304679 0.0030029 0.00295645 0.00290772 0.00285702 0.00280465 0.0027509 0.00269609 0.00264049 0.0025844 0.00252809 0.00247184 0.00241589 0.0023605 0.00230589 0.00225228 0.00219988 0.00214887 0.00209943 0.00205172 0.0020059 0.00196208 0.00192041 0.00188098 0.0018439 0.00180926 0.00177714 0.0017476 0.0017207 0.00169651 0.00167506 0.0016564 0.00164056 0.00162756 0.00161743 0.00161018 0.00160582 0.00160437 
0.00133127 0.00133261 0.00133661 0.00134327 0.0013526 0.00136457 0.00137919 0.00139644 0.00141631 0.00143878 0.00146382 0.00149142 0.00152155 0.00155416 0.00158921 0.00162666 0.00166646 0.00170853 0.00175281 0.00179921 0.00184765 0.00189802 0.00195019 0.00200406 0.00205947 0.00211627 0.0021743 0.00223338 0.0022933 0.00235386 0.00241483 0.00247598 0.00253706 0.0025978 0.00265794 0.00271719 0.00277527 0.00283187 0.00288671 0.00293949 0.00298991 0.00303767 0.00308251 0.00312414 0.0031623 0.00319677 0.0032273 0.00325372 0.00327584 0.00329352 0.00330665 0.00331514 0.00331894 0.00331804 0.00331246 0.00330225 0.00328748 0.00326829 0.00324482 0.00321724 0.00318575 0.00315059 0.00311199 0.00307023 0.00302559 0.00297835 0.00292881 0.00287728 0.00282406 0.00276947 0.00271381 0.00265736 0.00260044 0.00254331 0.00248626 0.00242953 0.00237339 0.00231805 0.00226374 0.00221067 0.00215903 0.00210899 0.00206071 0.00201435 0.00197004 0.00192789 0.00188803 0.00185056 0.00181555 0.00178309 0.00175324 0.00172608 0.00170164 0.00167999 0.00166114 0.00164515 0.00163202 0.00162179 0.00161448 0.00161008 0.00160862 
0.00133638 0.00133773 0.00134179 0.00134854 0.00135798 0.00137011 0.00138492 0.0014024 0.00142254 0.00144531 0.0014707 0.00149869 0.00152924 0.00156232 0.00159789 0.00163591 0.00167632 0.00171905 0.00176405 0.00181121 0.00186047 0.0019117 0.0019648 0.00201965 0.00207609 0.00213397 0.00219314 0.00225339 0.00231454 0.00237637 0.00243866 0.00250116 0.00256361 0.00262576 0.00268731 0.00274799 0.00280749 0.00286551 0.00292175 0.0029759 0.00302765 0.00307669 0.00312274 0.00316552 0.00320474 0.00324017 0.00327157 0.00329873 0.00332148 0.00333966 0.00335315 0.00336187 0.00336576 0.0033648 0.00335902 0.00334847 0.00333323 0.00331344 0.00328924 0.00326082 0.00322838 0.00319217 0.00315245 0.00310948 0.00306356 0.003015 0.00296409 0.00291117 0.00285654 0.00280052 0.00274343 0.00268558 0.00262725 0.00256875 0.00251035 0.00245232 0.00239491 0.00233835 0.00228288 0.00222869 0.00217598 0.00212493 0.0020757 0.00202845 0.00198329 0.00194037 0.00189979 0.00186164 0.00182602 0.001793 0.00176265 0.00173503 0.00171019 0.00168818 0.00166904 0.00165278 0.00163945 0.00162906 0.00162163 0.00161717 0.00161568 
0.00134352 0.0013449 0.00134902 0.00135589 0.0013655 0.00137785 0.00139293 0.00141073 0.00143124 0.00145444 0.00148032 0.00150884 0.00154 0.00157374 0.00161004 0.00164885 0.00169012 0.00173379 0.00177978 0.00182802 0.00187842 0.00193088 0.00198528 0.0020415 0.00209939 0.00215881 0.00221957 0.00228149 0.00234437 0.002408 0.00247214 0.00253654 0.00260094 0.00266507 0.00272863 0.00279132 0.00285285 0.00291288 0.0029711 0.00302719 0.00308082 0.00313168 0.00317946 0.00322386 0.00326459 0.00330139 0.00333402 0.00336224 0.00338588 0.00340477 0.00341878 0.00342782 0.00343183 0.0034308 0.00342474 0.0034137 0.0033978 0.00337715 0.00335191 0.00332229 0.00328851 0.00325082 0.00320949 0.0031648 0.00311708 0.00306664 0.0030138 0.00295889 0.00290225 0.00284422 0.00278511 0.00272525 0.00266495 0.00260451 0.00254421 0.00248433 0.00242513 0.00236686 0.00230973 0.00225397 0.00219976 0.00214729 0.00209672 0.0020482 0.00200187 0.00195784 0.00191624 0.00187715 0.00184067 0.00180686 0.0017758 0.00174755 0.00172215 0.00169964 0.00168007 0.00166346 0.00164984 0.00163922 0.00163163 0.00162707 0.00162555 
0.00135267 0.00135407 0.00135829 0.00136531 0.00137514 0.00138777 0.0014032 0.00142141 0.0014424 0.00146615 0.00149265 0.00152188 0.00155381 0.00158841 0.00162565 0.00166548 0.00170786 0.00175272 0.00180001 0.00184964 0.00190153 0.00195557 0.00201166 0.00206966 0.00212943 0.00219082 0.00225365 0.00231774 0.00238288 0.00244884 0.00251539 0.00258227 0.0026492 0.00271591 0.00278208 0.00284741 0.00291157 0.00297422 0.00303504 0.00309367 0.00314977 0.00320301 0.00325305 0.00329958 0.00334229 0.00338089 0.00341513 0.00344475 0.00346956 0.00348938 0.00350408 0.00351354 0.00351771 0.00351657 0.00351014 0.00349848 0.0034817 0.00345992 0.00343333 0.00340214 0.00336659 0.00332695 0.00328351 0.00323658 0.00318649 0.00313359 0.00307821 0.00302072 0.00296146 0.00290079 0.00283905 0.00277657 0.00271369 0.00265071 0.00258795 0.00252567 0.00246415 0.00240363 0.00234436 0.00228655 0.0022304 0.00217608 0.00212377 0.00207362 0.00202576 0.00198032 0.0019374 0.0018971 0.0018595 0.00182468 0.0017927 0.00176362 0.00173749 0.00171434 0.00169422 0.00167715 0.00166315 0.00165225 0.00164445 0.00163977 0.0016382 
0.00136379 0.00136524 0.00136957 0.00137678 0.00138688 0.00139985 0.0014157 0.00143442 0.001456 0.00148042 0.00150769 0.00153777 0.00157065 0.0016063 0.00164469 0.00168578 0.00172953 0.00177587 0.00182475 0.00187609 0.0019298 0.0019858 0.00204395 0.00210415 0.00216624 0.00223008 0.00229547 0.00236224 0.00243016 0.00249902 0.00256855 0.0026385 0.00270859 0.0027785 0.00284792 0.00291653 0.00298397 0.0030499 0.00311394 0.00317574 0.00323493 0.00329114 0.00334402 0.00339322 0.00343841 0.00347927 0.00351552 0.0035469 0.00357318 0.00359418 0.00360973 0.00361973 0.0036241 0.00362283 0.00361594 0.00360349 0.0035856 0.00356241 0.00353413 0.00350097 0.0034632 0.00342111 0.00337503 0.00332529 0.00327225 0.00321627 0.00315773 0.003097 0.00303447 0.00297051 0.00290549 0.00283977 0.00277368 0.00270756 0.00264172 0.00257646 0.00251206 0.00244878 0.00238685 0.00232651 0.00226795 0.00221136 0.0021569 0.00210474 0.002055 0.0020078 0.00196326 0.00192146 0.00188249 0.00184642 0.00181332 0.00178323 0.0017562 0.00173227 0.00171147 0.00169383 0.00167938 0.00166811 0.00166006 0.00165523 0.00165361 
0.00137688 0.00137837 0.00138283 0.00139027 0.00140068 0.00141406 0.00143041 0.00144973 0.00147201 0.00149723 0.0015254 0.0015565 0.00159051 0.00162741 0.00166717 0.00170975 0.00175512 0.00180322 0.00185399 0.00190737 0.00196326 0.00202158 0.00208221 0.00214503 0.0022099 0.00227665 0.00234511 0.00241509 0.00248636 0.00255868 0.00263181 0.00270546 0.00277933 0.00285311 0.00292645 0.00299901 0.00307043 0.00314031 0.00320827 0.00327391 0.00333685 0.00339667 0.00345299 0.00350544 0.00355364 0.00359726 0.00363597 0.00366949 0.00369757 0.00372 0.0037366 0.00374725 0.00375188 0.00375046 0.00374301 0.0037296 0.00371036 0.00368545 0.00365509 0.00361953 0.00357906 0.00353401 0.00348471 0.00343155 0.00337492 0.0033152 0.00325282 0.00318818 0.00312169 0.00305376 0.00298477 0.00291512 0.00284516 0.00277525 0.00270571 0.00263687 0.00256901 0.0025024 0.00243729 0.00237392 0.00231247 0.00225316 0.00219614 0.00214157 0.00208958 0.0020403 0.00199382 0.00195024 0.00190964 0.00187208 0.00183763 0.00180634 0.00177825 0.00175339 0.00173179 0.00171348 0.00169847 0.00168679 0.00167843 0.00167342 0.00167174 
0.00139189 0.00139343 0.00139804 0.00140574 0.00141651 0.00143037 0.0014473 0.00146731 0.00149039 0.00151655 0.00154577 0.00157804 0.00161336 0.0016517 0.00169305 0.00173736 0.00178462 0.00183476 0.00188774 0.00194348 0.00200191 0.00206294 0.00212646 0.00219235 0.00226046 0.00233063 0.00240268 0.00247642 0.00255161 0.00262802 0.00270537 0.00278337 0.0028617 0.00294004 0.00301802 0.00309526 0.00317138 0.00324595 0.00331856 0.00338877 0.00345616 0.00352028 0.00358071 0.00363703 0.00368883 0.00373574 0.0037774 0.00381349 0.00384372 0.00386787 0.00388573 0.00389717 0.00390211 0.0039005 0.00389238 0.00387782 0.00385697 0.00383001 0.00379717 0.00375874 0.00371505 0.00366645 0.00361332 0.00355608 0.00349516 0.00343101 0.00336406 0.00329477 0.00322358 0.00315093 0.00307725 0.00300295 0.00292842 0.00285403 0.00278015 0.00270708 0.00263515 0.00256464 0.00249579 0.00242886 0.00236404 0.00230154 0.00224152 0.00218414 0.00212953 0.0020778 0.00202907 0.00198342 0.00194092 0.00190163 0.00186563 0.00183294 0.00180361 0.00177766 0.00175514 0.00173605 0.00172041 0.00170823 0.00169952 0.0016943 0.00169256 
0.00140878 0.00141037 0.00141517 0.00142316 0.00143434 0.00144873 0.00146632 0.00148712 0.00151112 0.00153833 0.00156875 0.00160236 0.00163917 0.00167916 0.00172231 0.00176861 0.00181801 0.00187048 0.00192598 0.00198444 0.00204578 0.00210992 0.00217675 0.00224616 0.00231799 0.0023921 0.00246829 0.00254637 0.0026261 0.00270722 0.00278946 0.0028725 0.00295603 0.00303966 0.00312304 0.00320573 0.00328733 0.00336739 0.00344544 0.003521 0.00359362 0.00366279 0.00372805 0.00378893 0.00384498 0.00389577 0.0039409 0.00398002 0.00401281 0.00403899 0.00405835 0.00407073 0.00407603 0.00407421 0.0040653 0.00404939 0.00402664 0.00399725 0.00396149 0.00391968 0.00387218 0.00381939 0.00376176 0.00369972 0.00363377 0.0035644 0.0034921 0.00341735 0.00334067 0.00326251 0.00318336 0.00310364 0.00302379 0.00294421 0.00286526 0.00278731 0.00271066 0.00263563 0.00256247 0.00249142 0.00242272 0.00235655 0.00229308 0.00223247 0.00217485 0.00212033 0.00206901 0.00202098 0.00197631 0.00193505 0.00189726 0.00186298 0.00183223 0.00180506 0.00178147 0.00176149 0.00174513 0.00173239 0.00172329 0.00171782 0.001716 
0.0014275 0.00142916 0.00143415 0.00144247 0.00145412 0.00146911 0.00148744 0.00150912 0.00153415 0.00156254 0.0015943 0.00162941 0.0016679 0.00170973 0.00175492 0.00180344 0.00185527 0.00191038 0.00196872 0.00203023 0.00209486 0.00216252 0.00223311 0.00230651 0.00238258 0.00246116 0.00254206 0.00262509 0.00270999 0.0027965 0.00288434 0.00297316 0.00306264 0.00315237 0.00324195 0.00333094 0.00341887 0.00350527 0.00358961 0.00367139 0.00375007 0.00382512 0.003896 0.0039622 0.0040232 0.00407853 0.00412774 0.00417041 0.00420618 0.00423476 0.00425588 0.00426936 0.00427509 0.00427303 0.0042632 0.00424572 0.00422074 0.00418851 0.00414933 0.00410357 0.00405163 0.00399396 0.00393106 0.00386344 0.00379164 0.0037162 0.00363768 0.00355663 0.00347357 0.00338905 0.00330357 0.00321762 0.00313164 0.00304608 0.00296133 0.00287777 0.00279573 0.00271553 0.00263744 0.00256172 0.00248858 0.00241824 0.00235085 0.00228658 0.00222554 0.00216786 0.00211362 0.0020629 0.00201578 0.00197229 0.00193249 0.00189641 0.00186408 0.00183552 0.00181074 0.00178976 0.00177258 0.00175921 0.00174967 0.00174394 0.00174202 
0.00144801 0.00144974 0.00145495 0.00146363 0.0014758 0.00149145 0.0015106 0.00153325 0.00155942 0.00158913 0.00162237 0.00165915 0.0016995 0.00174339 0.00179084 0.00184184 0.00189637 0.00195441 0.00201592 0.00208087 0.00214917 0.00222077 0.00229557 0.00237345 0.00245428 0.0025379 0.00262412 0.00271273 0.00280348 0.00289609 0.00299027 0.00308567 0.00318192 0.00327859 0.00337526 0.00347144 0.00356663 0.0036603 0.00375188 0.0038408 0.00392648 0.00400831 0.0040857 0.00415805 0.0042248 0.0042854 0.00433934 0.00438615 0.00442541 0.00445677 0.00447995 0.00449473 0.00450097 0.00449863 0.00448775 0.00446843 0.00444087 0.00440534 0.00436219 0.00431184 0.00425474 0.00419142 0.00412243 0.00404834 0.00396978 0.00388734 0.00380166 0.00371334 0.00362297 0.00353115 0.00343843 0.00334534 0.00325237 0.00315999 0.00306864 0.00297871 0.00289055 0.0028045 0.00272084 0.00263983 0.00256171 0.00248667 0.00241487 0.00234648 0.00228162 0.00222039 0.00216288 0.00210916 0.00205929 0.00201332 0.00197128 0.0019332 0.00189909 0.00186899 0.00184288 0.00182079 0.00180271 0.00178864 0.0017786 0.00177257 0.00177056 
0.00147024 0.00147205 0.0014775 0.00148658 0.00149931 0.00151569 0.00153573 0.00155946 0.00158689 0.00161803 0.0016529 0.00169153 0.00173392 0.00178008 0.00183003 0.00188376 0.00194128 0.00200256 0.00206758 0.00213632 0.00220871 0.00228469 0.00236417 0.00244704 0.00253318 0.00262242 0.00271458 0.00280944 0.00290676 0.00300624 0.00310756 0.00321037 0.00331427 0.0034188 0.00352351 0.00362786 0.00373131 0.00383327 0.00393312 0.00403022 0.00412392 0.00421354 0.0042984 0.00437785 0.00445124 0.00451793 0.00457734 0.00462895 0.00467225 0.00470686 0.00473243 0.00474872 0.00475557 0.00475293 0.00474082 0.00471938 0.00468883 0.00464949 0.00460176 0.0045461 0.00448305 0.0044132 0.00433718 0.00425566 0.00416932 0.00407886 0.00398496 0.00388833 0.00378961 0.00368947 0.0035885 0.0034873 0.00338641 0.00328633 0.00318751 0.00309039 0.00299535 0.00290272 0.00281281 0.00272588 0.00264217 0.00256187 0.00248517 0.00241219 0.00234307 0.0022779 0.00221676 0.00215971 0.0021068 0.00205808 0.00201356 0.00197327 0.00193721 0.0019054 0.00187783 0.00185451 0.00183543 0.0018206 0.00181 0.00180365 0.00180153 
0.00149413 0.00149603 0.00150173 0.00151125 0.00152459 0.00154176 0.00156278 0.00158768 0.00161647 0.00164918 0.00168584 0.00172647 0.00177109 0.00181974 0.00187242 0.00192914 0.00198993 0.00205477 0.00212366 0.00219657 0.00227345 0.00235426 0.00243891 0.00252731 0.00261932 0.00271481 0.00281357 0.0029154 0.00302004 0.00312718 0.00323651 0.00334762 0.00346011 0.0035735 0.00368727 0.00380086 0.00391367 0.00402504 0.00413429 0.00424071 0.00434357 0.00444209 0.00453554 0.00462313 0.00470414 0.00477785 0.00484359 0.00490073 0.00494872 0.00498708 0.00501543 0.00503349 0.00504105 0.00503806 0.00502455 0.00500068 0.00496669 0.00492295 0.00486993 0.00480816 0.00473825 0.0046609 0.00457682 0.00448676 0.00439152 0.00429188 0.00418862 0.00408252 0.00397431 0.00386472 0.00375442 0.00364406 0.00353423 0.00342546 0.00331826 0.00321308 0.00311033 0.00301035 0.00291346 0.00281994 0.00273002 0.0026439 0.00256175 0.0024837 0.00240987 0.00234035 0.00227521 0.0022145 0.00215825 0.00210651 0.00205927 0.00201655 0.00197835 0.00194467 0.0019155 0.00189084 0.00187068 0.001855 0.00184381 0.0018371 0.00183486 
0.0015196 0.0015216 0.00152758 0.00153757 0.00155156 0.00156959 0.00159167 0.00161783 0.0016481 0.00168251 0.0017211 0.00176391 0.00181096 0.00186229 0.00191794 0.00197793 0.00204228 0.002111 0.0021841 0.00226157 0.00234338 0.00242948 0.00251981 0.00261428 0.00271277 0.00281514 0.0029212 0.00303074 0.0031435 0.00325917 0.0033774 0.00349779 0.0036199 0.00374321 0.00386716 0.00399115 0.00411451 0.00423652 0.00435643 0.00447344 0.00458672 0.00469541 0.00479865 0.00489558 0.00498534 0.00506711 0.00514012 0.00520365 0.00525705 0.00529976 0.00533134 0.00535144 0.00535985 0.00535648 0.00534137 0.00531469 0.00527674 0.00522795 0.00516884 0.00510004 0.00502227 0.00493631 0.00484298 0.00474318 0.00463777 0.00452767 0.00441376 0.0042969 0.00417794 0.00405767 0.00393685 0.00381618 0.00369629 0.0035778 0.00346123 0.00334705 0.00323571 0.00312756 0.00302294 0.00292211 0.00282533 0.00273278 0.00264463 0.002561 0.002482 0.00240771 0.00233819 0.00227346 0.00221357 0.00215852 0.00210832 0.00206296 0.00202243 0.00198672 0.00195581 0.00192969 0.00190835 0.00189176 0.00187992 0.00187282 0.00187046 
0.00154658 0.00154868 0.00155497 0.00156545 0.00158016 0.00159911 0.00162232 0.00164984 0.0016817 0.00171794 0.00175861 0.00180376 0.00185342 0.00190766 0.00196652 0.00203003 0.00209824 0.00217118 0.00224886 0.00233128 0.00241844 0.00251032 0.00260685 0.00270796 0.00281355 0.00292348 0.00303757 0.00315561 0.00327734 0.00340244 0.00353055 0.00366126 0.00379407 0.00392846 0.00406382 0.00419947 0.0043347 0.00446872 0.00460067 0.00472967 0.00485478 0.00497504 0.00508945 0.00519704 0.00529683 0.00538786 0.00546924 0.00554012 0.00559976 0.00564751 0.00568283 0.00570532 0.00571472 0.00571093 0.00569399 0.00566409 0.0056216 0.00556699 0.00550089 0.00542402 0.00533723 0.0052414 0.00513751 0.00502657 0.00490958 0.00478758 0.00466158 0.00453255 0.00440144 0.00426914 0.00413648 0.00400424 0.00387311 0.00374375 0.00361673 0.00349256 0.00337169 0.0032545 0.00314133 0.00303246 0.00292813 0.00282851 0.00273378 0.00264405 0.0025594 0.00247991 0.00240561 0.00233653 0.00227267 0.00221404 0.00216063 0.0021124 0.00206935 0.00203144 0.00199866 0.00197097 0.00194835 0.00193077 0.00191824 0.00191072 0.00190821 
0.00157499 0.00157719 0.00158379 0.00159482 0.00161028 0.00163021 0.00165464 0.00168361 0.00171717 0.00175537 0.00179827 0.00184592 0.0018984 0.00195576 0.00201806 0.00208537 0.00215774 0.00223521 0.00231783 0.00240562 0.00249859 0.00259673 0.0027 0.00280834 0.00292168 0.00303987 0.00316276 0.00329013 0.00342172 0.00355722 0.00369625 0.00383837 0.00398308 0.0041298 0.00427788 0.0044266 0.00457515 0.00472266 0.00486819 0.00501075 0.00514927 0.00528267 0.00540982 0.00552958 0.00564084 0.00574248 0.00583347 0.00591283 0.00597968 0.00603324 0.00607289 0.00609816 0.00610873 0.00610448 0.00608545 0.00605187 0.00600415 0.00594287 0.00586874 0.00578262 0.00568547 0.00557836 0.00546241 0.00533876 0.0052086 0.00507309 0.00493339 0.00479061 0.00464581 0.00449998 0.00435404 0.00420885 0.00406519 0.00392373 0.00378511 0.00364987 0.00351847 0.00339131 0.00326874 0.00315103 0.00303843 0.0029311 0.00282919 0.0027328 0.00264202 0.00255687 0.0024774 0.00240359 0.00233546 0.00227296 0.00221607 0.00216477 0.002119 0.00207873 0.00204393 0.00201455 0.00199056 0.00197193 0.00195864 0.00195068 0.00194802 
0.00160471 0.00160703 0.00161398 0.00162557 0.00164184 0.00166281 0.00168853 0.00171904 0.00175441 0.00179469 0.00183996 0.0018903 0.00194577 0.00200646 0.00207245 0.00214383 0.00222065 0.00230301 0.00239094 0.0024845 0.00258373 0.00268863 0.0027992 0.00291539 0.00303714 0.00316432 0.0032968 0.00343437 0.00357678 0.0037237 0.00387476 0.00402949 0.00418737 0.00434778 0.00451003 0.00467331 0.00483677 0.00499943 0.00516025 0.00531811 0.00547182 0.00562013 0.00576177 0.00589542 0.00601979 0.00613361 0.00623565 0.00632476 0.00639992 0.00646021 0.00650489 0.0065334 0.00654535 0.0065406 0.00651918 0.00648138 0.00642766 0.0063587 0.00627535 0.00617861 0.00606961 0.00594959 0.00581985 0.00568173 0.00553659 0.00538576 0.00523058 0.00507228 0.00491207 0.00475105 0.00459026 0.00443063 0.004273 0.00411813 0.00396667 0.0038192 0.00367621 0.0035381 0.00340522 0.00327786 0.00315622 0.00304049 0.00293078 0.00282718 0.00272975 0.0026385 0.00255344 0.00247455 0.0024018 0.00233515 0.00227454 0.00221993 0.00217126 0.00212846 0.0020915 0.00206031 0.00203486 0.0020151 0.00200101 0.00199257 0.00198976 