<?xml version="1.0"?>
<VTKFile type="StructuredGrid" version="0.1">
    <StructuredGrid WholeExtent="0 100 0 100 0 0">
        <Piece Extent="0 100 0 100 0 0">
            <Points>
                <DataArray type="Float64" NumberOfComponents="3" format="ascii">
-15 -15 0
-15 -14.7 0
-15 -14.4 0
-15 -14.1 0
-15 -13.8 0
-15 -13.5 0
-15 -13.2 0
-15 -12.9 0
-15 -12.6 0
-15 -12.3 0
-15 -12 0
-15 -11.7 0
-15 -11.4 0
-15 -11.1 0
-15 -10.8 0
-15 -10.5 0
-15 -10.2 0
-15 -9.9 0
-15 -9.6 0
-15 -9.3 0
-15 -9 0
-15 -8.7 0
-15 -8.4 0
-15 -8.1 0
-15 -7.8 0
-15 -7.5 0
-15 -7.2 0
-15 -6.9 0
-15 -6.6 0
-15 -6.3 0
-15 -6 0
-15 -5.7 0
-15 -5.4 0
-15 -5.1 0
-15 -4.8 0
-15 -4.5 0
-15 -4.2 0
-15 -3.9 0
-15 -3.6 0
-15 -3.3 0
-15 -3 0
-15 -2.7 0
-15 -2.4 0
-15 -2.1 0
-15 -1.8 0
-15 -1.5 0
-15 -1.2 0
-15 -0.9 0
-15 -0.6 0
-15 -0.3 0
-15 0 0
-15 0.3 0
-15 0.6 0
-15 0.9 0
-15 1.2 0
-15 1.5 0
-15 1.8 0
-15 2.1 0
-15 2.4 0
-15 2.7 0
-15 3 0
-15 3.3 0
-15 3.6 0
-15 3.9 0
-15 4.2 0
-15 4.5 0
-15 4.8 0
-15 5.1 0
-15 5.4 0
-15 5.7 0
-15 6 0
-15 6.3 0
-15 6.6 0
-15 6.9 0
-15 7.2 0
-15 7.5 0
-15 7.8 0
-15 8.1 0
-15 8.4 0
-15 8.7 0
-15 9 0
-15 9.3 0
-15 9.6 0
-15 9.9 0
-15 10.2 0
-15 10.5 0
-15 10.8 0
-15 11.1 0
-15 11.4 0
-15 11.7 0
-15 12 0
-15 12.3 0
-15 12.6 0
-15 12.9 0
-15 13.2 0
-15 13.5 0
-15 13.8 0
-15 14.1 0
-15 14.4 0
-15 14.7 0
-15 15 0
-14.7 -15 0
-14.7 -14.7 0
-14.7 -14.4 0
-14.7 -14.1 0
-14.7 -13.8 0
-14.7 -13.5 0
-14.7 -13.2 0
-14.7 -12.9 0
-14.7 -12.6 0
-14.7 -12.3 0
-14.7 -12 0
-14.7 -11.7 0
-14.7 -11.4 0
-14.7 -11.1 0
-14.7 -10.8 0
-14.7 -10.5 0
-14.7 -10.2 0
-14.7 -9.9 0
-14.7 -9.6 0
-14.7 -9.3 0
-14.7 -9 0
-14.7 -8.7 0
-14.7 -8.4 0
-14.7 -8.1 0
-14.7 -7.8 0
-14.7 -7.5 0
-14.7 -7.2 0
-14.7 -6.9 0
-14.7 -6.6 0
-14.7 -6.3 0
-14.7 -6 0
-14.7 -5.7 0
-14.7 -5.4 0
-14.7 -5.1 0
-14.7 -4.8 0
-14.7 -4.5 0
-14.7 -4.2 0
-14.7 -3.9 0
-14.7 -3.6 0
-14.7 -3.3 0
-14.7 -3 0
-14.7 -2.7 0
-14.7 -2.4 0
-14.7 -2.1 0
-14.7 -1.8 0
-14.7 -1.5 0
-14.7 -1.2 0
-14.7 -0.9 0
-14.7 -0.6 0
-14.7 -0.3 0
-14.7 0 0
-14.7 0.3 0
-14.7 0.6 0
-14.7 0.9 0
-14.7 1.2 0
-14.7 1.5 0
-14.7 1.8 0
-14.7 2.1 0
-14.7 2.4 0
-14.7 2.7 0
-14.7 3 0
-14.7 3.3 0
-14.7 3.6 0
-14.7 3.9 0
-14.7 4.2 0
-14.7 4.5 0
-14.7 4.8 0
-14.7 5.1 0
-14.7 5.4 0
-14.7 5.7 0
-14.7 6 0
-14.7 6.3 0
-14.7 6.6 0
-14.7 6.9 0
-14.7 7.2 0
-14.7 7.5 0
-14.7 7.8 0
-14.7 8.1 0
-14.7 8.4 0
-14.7 8.7 0
-14.7 9 0
-14.7 9.3 0
-14.7 9.6 0
-14.7 9.9 0
-14.7 10.2 0
-14.7 10.5 0
-14.7 10.8 0
-14.7 11.1 0
-14.7 11.4 0
-14.7 11.7 0
-14.7 12 0
-14.7 12.3 0
-14.7 12.6 0
-14.7 12.9 0
-14.7 13.2 0
-14.7 13.5 0
-14.7 13.8 0
-14.7 14.1 0
-14.7 14.4 0
-14.7 14.7 0
-14.7 15 0
-14.4 -15 0
-14.4 -14.7 0
-14.4 -14.4 0
-14.4 -14.1 0
-14.4 -13.8 0
-14.4 -13.5 0
-14.4 -13.2 0
-14.4 -12.9 0
-14.4 -12.6 0
-14.4 -12.3 0
-14.4 -12 0
-14.4 -11.7 0
-14.4 -11.4 0
-14.4 -11.1 0
-14.4 -10.8 0
-14.4 -10.5 0
-14.4 -10.2 0
-14.4 -9.9 0
-14.4 -9.6 0
-14.4 -9.3 0
-14.4 -9 0
-14.4 -8.7 0
-14.4 -8.4 0
-14.4 -8.1 0
-14.4 -7.8 0
-14.4 -7.5 0
-14.4 -7.2 0
-14.4 -6.9 0
-14.4 -6.6 0
-14.4 -6.3 0
-14.4 -6 0
-14.4 -5.7 0
-14.4 -5.4 0
-14.4 -5.1 0
-14.4 -4.8 0
-14.4 -4.5 0
-14.4 -4.2 0
-14.4 -3.9 0
-14.4 -3.6 0
-14.4 -3.3 0
-14.4 -3 0
-14.4 -2.7 0
-14.4 -2.4 0
-14.4 -2.1 0
-14.4 -1.8 0
-14.4 -1.5 0
-14.4 -1.2 0
-14.4 -0.9 0
-14.4 -0.6 0
-14.4 -0.3 0
-14.4 0 0
-14.4 0.3 0
-14.4 0.6 0
-14.4 0.9 0
-14.4 1.2 0
-14.4 1.5 0
-14.4 1.8 0
-14.4 2.1 0
-14.4 2.4 0
-14.4 2.7 0
-14.4 3 0
-14.4 3.3 0
-14.4 3.6 0
-14.4 3.9 0
-14.4 4.2 0
-14.4 4.5 0
-14.4 4.8 0
-14.4 5.1 0
-14.4 5.4 0
-14.4 5.7 0
-14.4 6 0
-14.4 6.3 0
-14.4 6.6 0
-14.4 6.9 0
-14.4 7.2 0
-14.4 7.5 0
-14.4 7.8 0
-14.4 8.1 0
-14.4 8.4 0
-14.4 8.7 0
-14.4 9 0
-14.4 9.3 0
-14.4 9.6 0
-14.4 9.9 0
-14.4 10.2 0
-14.4 10.5 0
-14.4 10.8 0
-14.4 11.1 0
-14.4 11.4 0
-14.4 11.7 0
-14.4 12 0
-14.4 12.3 0
-14.4 12.6 0
-14.4 12.9 0
-14.4 13.2 0
-14.4 13.5 0
-14.4 13.8 0
-14.4 14.1 0
-14.4 14.4 0
-14.4 14.7 0
-14.4 15 0
-14.1 -15 0
-14.1 -14.7 0
-14.1 -14.4 0
-14.1 -14.1 0
-14.1 -13.8 0
-14.1 -13.5 0
-14.1 -13.2 0
-14.1 -12.9 0
-14.1 -12.6 0
-14.1 -12.3 0
-14.1 -12 0
-14.1 -11.7 0
-14.1 -11.4 0
-14.1 -11.1 0
-14.1 -10.8 0
-14.1 -10.5 0
-14.1 -10.2 0
-14.1 -9.9 0
-14.1 -9.6 0
-14.1 -9.3 0
-14.1 -9 0
-14.1 -8.7 0
-14.1 -8.4 0
-14.1 -8.1 0
-14.1 -7.8 0
-14.1 -7.5 0
-14.1 -7.2 0
-14.1 -6.9 0
-14.1 -6.6 0
-14.1 -6.3 0
-14.1 -6 0
-14.1 -5.7 0
-14.1 -5.4 0
-14.1 -5.1 0
-14.1 -4.8 0
-14.1 -4.5 0
-14.1 -4.2 0
-14.1 -3.9 0
-14.1 -3.6 0
-14.1 -3.3 0
-14.1 -3 0
-14.1 -2.7 0
-14.1 -2.4 0
-14.1 -2.1 0
-14.1 -1.8 0
-14.1 -1.5 0
-14.1 -1.2 0
-14.1 -0.9 0
-14.1 -0.6 0
-14.1 -0.3 0
-14.1 0 0
-14.1 0.3 0
-14.1 0.6 0
-14.1 0.9 0
-14.1 1.2 0
-14.1 1.5 0
-14.1 1.8 0
-14.1 2.1 0
-14.1 2.4 0
-14.1 2.7 0
-14.1 3 0
-14.1 3.3 0
-14.1 3.6 0
-14.1 3.9 0
-14.1 4.2 0
-14.1 4.5 0
-14.1 4.8 0
-14.1 5.1 0
-14.1 5.4 0
-14.1 5.7 0
-14.1 6 0
-14.1 6.3 0
-14.1 6.6 0
-14.1 6.9 0
-14.1 7.2 0
-14.1 7.5 0
-14.1 7.8 0
-14.1 8.1 0
-14.1 8.4 0
-14.1 8.7 0
-14.1 9 0
-14.1 9.3 0
-14.1 9.6 0
-14.1 9.9 0
-14.1 10.2 0
-14.1 10.5 0
-14.1 10.8 0
-14.1 11.1 0
-14.1 11.4 0
-14.1 11.7 0
-14.1 12 0
-14.1 12.3 0
-14.1 12.6 0
-14.1 12.9 0
-14.1 13.2 0
-14.1 13.5 0
-14.1 13.8 0
-14.1 14.1 0
-14.1 14.4 0
-14.1 14.7 0
-14.1 15 0
-13.8 -15 0
-13.8 -14.7 0
-13.8 -14.4 0
-13.8 -14.1 0
-13.8 -13.8 0
-13.8 -13.5 0
-13.8 -13.2 0
-13.8 -12.9 0
-13.8 -12.6 0
-13.8 -12.3 0
-13.8 -12 0
-13.8 -11.7 0
-13.8 -11.4 0
-13.8 -11.1 0
-13.8 -10.8 0
-13.8 -10.5 0
-13.8 -10.2 0
-13.8 -9.9 0
-13.8 -9.6 0
-13.8 -9.3 0
-13.8 -9 0
-13.8 -8.7 0
-13.8 -8.4 0
-13.8 -8.1 0
-13.8 -7.8 0
-13.8 -7.5 0
-13.8 -7.2 0
-13.8 -6.9 0
-13.8 -6.6 0
-13.8 -6.3 0
-13.8 -6 0
-13.8 -5.7 0
-13.8 -5.4 0
-13.8 -5.1 0
-13.8 -4.8 0
-13.8 -4.5 0
-13.8 -4.2 0
-13.8 -3.9 0
-13.8 -3.6 0
-13.8 -3.3 0
-13.8 -3 0
-13.8 -2.7 0
-13.8 -2.4 0
-13.8 -2.1 0
-13.8 -1.8 0
-13.8 -1.5 0
-13.8 -1.2 0
-13.8 -0.9 0
-13.8 -0.6 0
-13.8 -0.3 0
-13.8 0 0
-13.8 0.3 0
-13.8 0.6 0
-13.8 0.9 0
-13.8 1.2 0
-13.8 1.5 0
-13.8 1.8 0
-13.8 2.1 0
-13.8 2.4 0
-13.8 2.7 0
-13.8 3 0
-13.8 3.3 0
-13.8 3.6 0
-13.8 3.9 0
-13.8 4.2 0
-13.8 4.5 0
-13.8 4.8 0
-13.8 5.1 0
-13.8 5.4 0
-13.8 5.7 0
-13.8 6 0
-13.8 6.3 0
-13.8 6.6 0
-13.8 6.9 0
-13.8 7.2 0
-13.8 7.5 0
-13.8 7.8 0
-13.8 8.1 0
-13.8 8.4 0
-13.8 8.7 0
-13.8 9 0
-13.8 9.3 0
-13.8 9.6 0
-13.8 9.9 0
-13.8 10.2 0
-13.8 10.5 0
-13.8 10.8 0
-13.8 11.1 0
-13.8 11.4 0
-13.8 11.7 0
-13.8 12 0
-13.8 12.3 0
-13.8 12.6 0
-13.8 12.9 0
-13.8 13.2 0
-13.8 13.5 0
-13.8 13.8 0
-13.8 14.1 0
-13.8 14.4 0
-13.8 14.7 0
-13.8 15 0
-13.5 -15 0
-13.5 -14.7 0
-13.5 -14.4 0
-13.5 -14.1 0
-13.5 -13.8 0
-13.5 -13.5 0
-13.5 -13.2 0
-13.5 -12.9 0
-13.5 -12.6 0
-13.5 -12.3 0
-13.5 -12 0
-13.5 -11.7 0
-13.5 -11.4 0
-13.5 -11.1 0
-13.5 -10.8 0
-13.5 -10.5 0
-13.5 -10.2 0
-13.5 -9.9 0
-13.5 -9.6 0
-13.5 -9.3 0
-13.5 -9 0
-13.5 -8.7 0
-13.5 -8.4 0
-13.5 -8.1 0
-13.5 -7.8 0
-13.5 -7.5 0
-13.5 -7.2 0
-13.5 -6.9 0
-13.5 -6.6 0
-13.5 -6.3 0
-13.5 -6 0
-13.5 -5.7 0
-13.5 -5.4 0
-13.5 -5.1 0
-13.5 -4.8 0
-13.5 -4.5 0
-13.5 -4.2 0
-13.5 -3.9 0
-13.5 -3.6 0
-13.5 -3.3 0
-13.5 -3 0
-13.5 -2.7 0
-13.5 -2.4 0
-13.5 -2.1 0
-13.5 -1.8 0
-13.5 -1.5 0
-13.5 -1.2 0
-13.5 -0.9 0
-13.5 -0.6 0
-13.5 -0.3 0
-13.5 0 0
-13.5 0.3 0
-13.5 0.6 0
-13.5 0.9 0
-13.5 1.2 0
-13.5 1.5 0
-13.5 1.8 0
-13.5 2.1 0
-13.5 2.4 0
-13.5 2.7 0
-13.5 3 0
-13.5 3.3 0
-13.5 3.6 0
-13.5 3.9 0
-13.5 4.2 0
-13.5 4.5 0
-13.5 4.8 0
-13.5 5.1 0
-13.5 5.4 0
-13.5 5.7 0
-13.5 6 0
-13.5 6.3 0
-13.5 6.6 0
-13.5 6.9 0
-13.5 7.2 0
-13.5 7.5 0
-13.5 7.8 0
-13.5 8.1 0
-13.5 8.4 0
-13.5 8.7 0
-13.5 9 0
-13.5 9.3 0
-13.5 9.6 0
-13.5 9.9 0
-13.5 10.2 0
-13.5 10.5 0
-13.5 10.8 0
-13.5 11.1 0
-13.5 11.4 0
-13.5 11.7 0
-13.5 12 0
-13.5 12.3 0
-13.5 12.6 0
-13.5 12.9 0
-13.5 13.2 0
-13.5 13.5 0
-13.5 13.8 0
-13.5 14.1 0
-13.5 14.4 0
-13.5 14.7 0
-13.5 15 0
-13.2 -15 0
-13.2 -14.7 0
-13.2 -14.4 0
-13.2 -14.1 0
-13.2 -13.8 0
-13.2 -13.5 0
-13.2 -13.2 0
-13.2 -12.9 0
-13.2 -12.6 0
-13.2 -12.3 0
-13.2 -12 0
-13.2 -11.7 0
-13.2 -11.4 0
-13.2 -11.1 0
-13.2 -10.8 0
-13.2 -10.5 0
-13.2 -10.2 0
-13.2 -9.9 0
-13.2 -9.6 0
-13.2 -9.3 0
-13.2 -9 0
-13.2 -8.7 0
-13.2 -8.4 0
-13.2 -8.1 0
-13.2 -7.8 0
-13.2 -7.5 0
-13.2 -7.2 0
-13.2 -6.9 0
-13.2 -6.6 0
-13.2 -6.3 0
-13.2 -6 0
-13.2 -5.7 0
-13.2 -5.4 0
-13.2 -5.1 0
-13.2 -4.8 0
-13.2 -4.5 0
-13.2 -4.2 0
-13.2 -3.9 0
-13.2 -3.6 0
-13.2 -3.3 0
-13.2 -3 0
-13.2 -2.7 0
-13.2 -2.4 0
-13.2 -2.1 0
-13.2 -1.8 0
-13.2 -1.5 0
-13.2 -1.2 0
-13.2 -0.9 0
-13.2 -0.6 0
-13.2 -0.3 0
-13.2 0 0
-13.2 0.3 0
-13.2 0.6 0
-13.2 0.9 0
-13.2 1.2 0
-13.2 1.5 0
-13.2 1.8 0
-13.2 2.1 0
-13.2 2.4 0
-13.2 2.7 0
-13.2 3 0
-13.2 3.3 0
-13.2 3.6 0
-13.2 3.9 0
-13.2 4.2 0
-13.2 4.5 0
-13.2 4.8 0
-13.2 5.1 0
-13.2 5.4 0
-13.2 5.7 0
-13.2 6 0
-13.2 6.3 0
-13.2 6.6 0
-13.2 6.9 0
-13.2 7.2 0
-13.2 7.5 0
-13.2 7.8 0
-13.2 8.1 0
-13.2 8.4 0
-13.2 8.7 0
-13.2 9 0
-13.2 9.3 0
-13.2 9.6 0
-13.2 9.9 0
-13.2 10.2 0
-13.2 10.5 0
-13.2 10.8 0
-13.2 11.1 0
-13.2 11.4 0
-13.2 11.7 0
-13.2 12 0
-13.2 12.3 0
-13.2 12.6 0
-13.2 12.9 0
-13.2 13.2 0
-13.2 13.5 0
-13.2 13.8 0
-13.2 14.1 0
-13.2 14.4 0
-13.2 14.7 0
-13.2 15 0
-12.9 -15 0
-12.9 -14.7 0
-12.9 -14.4 0
-12.9 -14.1 0
-12.9 -13.8 0
-12.9 -13.5 0
-12.9 -13.2 0
-12.9 -12.9 0
-12.9 -12.6 0
-12.9 -12.3 0
-12.9 -12 0
-12.9 -11.7 0
-12.9 -11.4 0
-12.9 -11.1 0
-12.9 -10.8 0
-12.9 -10.5 0
-12.9 -10.2 0
-12.9 -9.9 0
-12.9 -9.6 0
-12.9 -9.3 0
-12.9 -9 0
-12.9 -8.7 0
-12.9 -8.4 0
-12.9 -8.1 0
-12.9 -7.8 0
-12.9 -7.5 0
-12.9 -7.2 0
-12.9 -6.9 0
-12.9 -6.6 0
-12.9 -6.3 0
-12.9 -6 0
-12.9 -5.7 0
-12.9 -5.4 0
-12.9 -5.1 0
-12.9 -4.8 0
-12.9 -4.5 0
-12.9 -4.2 0
-12.9 -3.9 0
-12.9 -3.6 0
-12.9 -3.3 0
-12.9 -3 0
-12.9 -2.7 0
-12.9 -2.4 0
-12.9 -2.1 0
-12.9 -1.8 0
-12.9 -1.5 0
-12.9 -1.2 0
-12.9 -0.9 0
-12.9 -0.6 0
-12.9 -0.3 0
-12.9 0 0
-12.9 0.3 0
-12.9 0.6 0
-12.9 0.9 0
-12.9 1.2 0
-12.9 1.5 0
-12.9 1.8 0
-12.9 2.1 0
-12.9 2.4 0
-12.9 2.7 0
-12.9 3 0
-12.9 3.3 0
-12.9 3.6 0
-12.9 3.9 0
-12.9 4.2 0
-12.9 4.5 0
-12.9 4.8 0
-12.9 5.1 0
-12.9 5.4 0
-12.9 5.7 0
-12.9 6 0
-12.9 6.3 0
-12.9 6.6 0
-12.9 6.9 0
-12.9 7.2 0
-12.9 7.5 0
-12.9 7.8 0
-12.9 8.1 0
-12.9 8.4 0
-12.9 8.7 0
-12.9 9 0
[...]
            <PointData>
                <DataArray type="Float64" Name="c1" format="ascii">
0.00358933 0.00359354 0.00360618 0.00362725 0.00365677 0.00369476 0.00374125 0.00379625 0.00385982 0.00393198 0.00401277 0.00410223 0.00420039 0.00430729 0.00442295 0.00454739 0.00468062 0.00482264 0.00497342 0.00513291 0.00530103 0.00547768 0.00566269 0.00585586 0.00605693 0.00626555 0.0064813 0.00670366 0.00693201 0.00716562 0.00740361 0.00764501 0.00788867 0.00813337 0.00837771 0.00862022 0.00885935 0.00909347 0.00932095 0.00954019 0.00974968 0.00994801 0.0101339 0.0103062 0.0104639 0.0106061 0.0107319 0.0108406 0.0109314 0.0110036 0.0110568 0.0110905 0.0111046 0.0110988 0.0110732 0.0110281 0.0109638 0.0108809 0.0107797 0.0106612 0.0105259 0.0103748 0.0102089 0.0100291 0.00983686 0.00963335 0.00942009 0.00919862 0.00897057 0.00873758 0.00850128 0.00826327 0.00802506 0.00778807 0.0075536 0.00732285 0.00709688 0.00687664 0.00666293 0.00645647 0.00625785 0.00606759 0.00588608 0.00571368 0.00555063 0.00539715 0.0052534 0.00511948 0.00499547 0.00488141 0.00477735 0.00468327 0.00459917 0.00452505 0.00446087 0.00440662 0.00436227 0.0043278 0.0043032 0.00428844 0.00428352 
0.00359096 0.00359518 0.00360783 0.00362894 0.0036585 0.00369655 0.00374311 0.00379821 0.00386189 0.00393417 0.0040151 0.00410472 0.00420306 0.00431016 0.00442605 0.00455075 0.00468426 0.00482659 0.00497772 0.0051376 0.00530615 0.00548327 0.0056688 0.00586255 0.00606426 0.00627357 0.00649008 0.00671328 0.00694253 0.00717711 0.00741616 0.00765867 0.00790353 0.00814947 0.00839511 0.00863895 0.00887941 0.00911485 0.00934361 0.00956407 0.00977469 0.00997403 0.0101608 0.010334 0.0104924 0.0106353 0.0107618 0.010871 0.0109622 0.0110349 0.0110884 0.0111224 0.0111365 0.0111307 0.011105 0.0110597 0.0109951 0.0109117 0.0108101 0.010691 0.0105551 0.0104032 0.0102365 0.0100558 0.00986246 0.00965782 0.00944334 0.00922061 0.00899126 0.00875696 0.00851936 0.00828008 0.00804065 0.00780248 0.00756691 0.00733511 0.00710816 0.00688699 0.00667243 0.00646518 0.00626584 0.00607491 0.0058928 0.00571983 0.00555628 0.00540234 0.00525817 0.00512388 0.00499954 0.00488519 0.00478086 0.00468655 0.00460225 0.00452795 0.00446363 0.00440925 0.0043648 0.00433026 0.0043056 0.00429081 0.00428588 
0.00359584 0.00360007 0.00361279 0.00363399 0.0036637 0.00370193 0.00374871 0.00380408 0.00386807 0.00394072 0.00402207 0.00411217 0.00421105 0.00431876 0.00443533 0.00456079 0.00469516 0.00483843 0.0049906 0.00515164 0.00532147 0.00550001 0.00568712 0.0058826 0.0060862 0.00629761 0.00651641 0.0067421 0.00697407 0.00721159 0.00745379 0.00769968 0.00794812 0.00819781 0.00844736 0.0086952 0.00893971 0.00917916 0.0094118 0.00963594 0.00984995 0.0100524 0.0102419 0.0104175 0.0105782 0.0107231 0.0108514 0.0109623 0.011055 0.0111289 0.0111834 0.011218 0.0112324 0.0112266 0.0112006 0.0111547 0.0110891 0.0110045 0.0109015 0.0107806 0.0106428 0.0104887 0.0103194 0.0101359 0.00993945 0.00973139 0.00951326 0.0092867 0.00905341 0.00881516 0.00857364 0.00833054 0.00808741 0.00784572 0.0076068 0.00737185 0.00714194 0.00691802 0.00670091 0.0064913 0.00628978 0.00609685 0.00591291 0.00573828 0.00557321 0.0054179 0.00527249 0.00513708 0.00501173 0.00489649 0.00479137 0.00469636 0.00461146 0.00453664 0.00447187 0.00441713 0.00437239 0.00433762 0.0043128 0.00429791 0.00429295 
0.00360393 0.0036082 0.00362101 0.00364238 0.00367232 0.00371085 0.003758 0.00381382 0.00387834 0.0039516 0.00403365 0.00412455 0.00422433 0.00433305 0.00445075 0.00457748 0.00471325 0.00485809 0.005012 0.00517496 0.00534693 0.00552783 0.00571755 0.00591591 0.00612268 0.00633757 0.00656019 0.00679005 0.00702656 0.00726899 0.00751648 0.00776803 0.00802248 0.0082785 0.00853463 0.00878925 0.0090406 0.00928686 0.00952611 0.00975648 0.00997621 0.0101838 0.0103778 0.0105575 0.0107218 0.01087 0.0110014 0.0111151 0.0112104 0.0112864 0.0113425 0.0113782 0.0113932 0.0113873 0.0113607 0.0113136 0.0112465 0.0111599 0.0110544 0.0109307 0.0107896 0.0106319 0.0104584 0.0102702 0.0100684 0.0098546 0.00963028 0.00939722 0.00915728 0.00891233 0.00866421 0.00841466 0.00816533 0.00791772 0.0076732 0.00743298 0.00719815 0.00696964 0.00674827 0.00653472 0.00632959 0.00613333 0.00594634 0.00576894 0.00560134 0.00544375 0.00529627 0.005159 0.00503199 0.00491527 0.00480883 0.00471267 0.00462677 0.00455108 0.00448558 0.00443022 0.00438499 0.00434984 0.00432475 0.00430971 0.00430469 
0.0036152 0.00361952 0.00363246 0.00365406 0.00368432 0.00372327 0.00377094 0.00382738 0.00389264 0.00396675 0.00404978 0.00414178 0.00424282 0.00435295 0.00447223 0.00460072 0.00473845 0.00488547 0.00504181 0.00520746 0.00538241 0.00556661 0.00575997 0.00596235 0.00617356 0.00639332 0.00662129 0.006857 0.00709988 0.00734922 0.00760416 0.00786371 0.00812666 0.00839167 0.00865718 0.00892147 0.00918267 0.00943872 0.0096875 0.00992685 0.0101548 0.0103696 0.0105699 0.0107551 0.0109243 0.0110771 0.0112128 0.0113305 0.0114293 0.0115084 0.0115668 0.0116041 0.0116198 0.0116138 0.0115863 0.0115376 0.0114682 0.0113787 0.0112698 0.0111423 0.0109967 0.0108339 0.0106545 0.0104596 0.0102504 0.0100283 0.00979514 0.00955276 0.00930326 0.00904873 0.00879117 0.00853247 0.00827436 0.0080184 0.00776599 0.00751837 0.00727662 0.00704168 0.00681435 0.0065953 0.0063851 0.00618419 0.00599296 0.00581167 0.00564056 0.00547977 0.00532941 0.00518955 0.00506022 0.00494143 0.00483317 0.0047354 0.00464808 0.00457119 0.00450466 0.00444845 0.00440253 0.00436686 0.0043414 0.00432613 0.00432104 
0.00362959 0.00363396 0.00364708 0.00366897 0.00369964 0.00373912 0.00378746 0.0038447 0.00391089 0.00398609 0.00407036 0.00416379 0.00426642 0.00437836 0.00449965 0.00463039 0.00477063 0.00492045 0.00507988 0.00524897 0.00542773 0.00561615 0.00581418 0.00602172 0.00623862 0.00646465 0.00669949 0.00694273 0.00719383 0.0074521 0.00771671 0.00798664 0.00826069 0.00853744 0.00881528 0.00909236 0.00936662 0.00963577 0.00989734 0.0101488 0.0103876 0.0106118 0.0108201 0.0110119 0.0111872 0.0113458 0.0114869 0.0116099 0.0117134 0.0117964 0.0118579 0.0118972 0.0119139 0.0119077 0.0118789 0.011828 0.0117555 0.0116623 0.0115491 0.0114165 0.0112653 0.0110961 0.0109093 0.0107059 0.0104869 0.0102539 0.0100089 0.00975406 0.00949185 0.00922463 0.00895464 0.00868395 0.00841438 0.00814757 0.00788495 0.00762778 0.00737712 0.0071339 0.00689891 0.0066728 0.0064561 0.00624924 0.00605256 0.00586631 0.00569068 0.00552581 0.00537176 0.00522859 0.00509629 0.00497485 0.00486425 0.00476442 0.00467531 0.00459687 0.00452903 0.00447173 0.00442494 0.00438859 0.00436265 0.0043471 0.00434192 
0.00364701 0.00365145 0.00366478 0.00368702 0.00371819 0.00375832 0.00380746 0.00386567 0.00393299 0.00400951 0.0040953 0.00419044 0.00429502 0.00440913 0.00453287 0.00466634 0.00480962 0.00496282 0.00512602 0.00529928 0.00548268 0.00567623 0.00587993 0.00609375 0.00631758 0.00655125 0.00679449 0.00704695 0.00730813 0.00757739 0.00785391 0.00813668 0.0084245 0.0087159 0.00900918 0.00930237 0.00959323 0.00987919 0.0101573 0.0104245 0.0106774 0.0109133 0.0111309 0.0113302 0.0115122 0.0116774 0.0118253 0.0119548 0.0120643 0.0121523 0.0122177 0.0122596 0.0122773 0.0122708 0.0122402 0.0121863 0.0121099 0.012012 0.0118935 0.0117551 0.0115973 0.0114204 0.0112248 0.0110109 0.0107798 0.010533 0.0102728 0.010002 0.0097236 0.00944027 0.00915464 0.00886895 0.00858515 0.00830494 0.00802976 0.00776086 0.0074993 0.00724597 0.00700164 0.00676691 0.0065423 0.00632819 0.00612488 0.00593259 0.00575149 0.00558165 0.00542312 0.00527592 0.00514002 0.00501537 0.00490192 0.00479959 0.0047083 0.00462798 0.00455855 0.00449994 0.00445208 0.00441491 0.0043884 0.0043725 0.0043672 
0.00366737 0.00367189 0.00368547 0.00370812 0.00373987 0.00378076 0.00383084 0.00389018 0.00395883 0.00403689 0.00412444 0.00422159 0.00432844 0.00444511 0.00457171 0.00470837 0.00485521 0.00501238 0.00517998 0.00535814 0.00554696 0.00574652 0.0059569 0.00617809 0.00641007 0.00665274 0.0069059 0.00716925 0.00744237 0.00772468 0.00801539 0.00831352 0.00861787 0.00892693 0.00923894 0.00955183 0.00986319 0.0101702 0.0104695 0.0107571 0.0110283 0.0112785 0.0115063 0.0117128 0.0119013 0.0120737 0.0122297 0.0123673 0.0124842 0.0125784 0.0126485 0.0126935 0.0127124 0.0127052 0.0126722 0.0126144 0.0125331 0.0124295 0.0123047 0.0121596 0.0119945 0.0118093 0.0116037 0.0113776 0.0111317 0.0108677 0.0105886 0.0102978 0.00999901 0.00969578 0.00939101 0.00908716 0.00878628 0.00849006 0.00819995 0.00791716 0.0076427 0.00737745 0.0071221 0.00687724 0.00664332 0.00642069 0.0062096 0.00601023 0.00582268 0.00564702 0.00548324 0.00533131 0.00519118 0.00506277 0.00494599 0.00484073 0.00474689 0.00466437 0.00459308 0.00453292 0.00448381 0.00444569 0.0044185 0.0044022 0.00439677 
0.00369056 0.00369518 0.00370904 0.00373216 0.00376457 0.00380632 0.00385747 0.00391809 0.00398826 0.00406808 0.00415765 0.00425708 0.00436652 0.00448609 0.00461595 0.00475626 0.00490716 0.00506885 0.00524147 0.00542522 0.00562024 0.00582668 0.00604468 0.00627432 0.00651565 0.00676864 0.00703319 0.0073091 0.00759601 0.00789341 0.00820061 0.00851666 0.00884035 0.00917019 0.00950436 0.00984071 0.0101768 0.0105097 0.0108358 0.0111502 0.0114459 0.0117138 0.0119518 0.0121626 0.0123558 0.0125359 0.0127018 0.0128497 0.0129757 0.0130773 0.0131529 0.0132012 0.0132214 0.0132131 0.0131767 0.0131138 0.0130263 0.0129159 0.012784 0.0126316 0.0124589 0.0122652 0.0120491 0.0118093 0.0115459 0.011261 0.010958 0.0106421 0.0103184 0.00999095 0.0096633 0.009338 0.00901711 0.00870228 0.00839487 0.00809604 0.00780674 0.00752777 0.00725978 0.00700329 0.00675871 0.00652631 0.00630631 0.00609883 0.00590393 0.0057216 0.00555182 0.00539449 0.00524954 0.00511683 0.00499623 0.00488763 0.00479088 0.00470585 0.00463243 0.0045705 0.00451997 0.00448076 0.0044528 0.00443604 0.00443046 
0.00371645 0.00372117 0.00373535 0.00375899 0.00379215 0.00383486 0.00388721 0.00394926 0.00402113 0.0041029 0.00419472 0.00429671 0.00440904 0.00453186 0.00466537 0.00480974 0.00496518 0.00513192 0.00531017 0.00550015 0.00570211 0.00591626 0.0061428 0.00638191 0.00663373 0.00689834 0.00717573 0.00746579 0.0077683 0.00808283 0.00840878 0.00874529 0.0090912 0.00944499 0.0098048 0.0101685 0.0105336 0.0108975 0.0112571 0.0116073 0.0119392 0.0122287 0.0124756 0.0126816 0.0128752 0.0130639 0.0132431 0.0134048 0.0135419 0.0136515 0.013733 0.0137853 0.0138068 0.0137966 0.0137555 0.0136859 0.0135906 0.013472 0.0133322 0.0131722 0.0129923 0.0127911 0.0125652 0.0123108 0.0120271 0.0117162 0.0113832 0.0110359 0.0106814 0.0103251 0.00997057 0.00962048 0.00927668 0.00894067 0.00861367 0.00829672 0.00799067 0.00769625 0.00741404 0.00714447 0.0068879 0.00664455 0.00641455 0.00619797 0.00599481 0.00580502 0.00562851 0.00546514 0.00531477 0.00517725 0.00505239 0.00494004 0.00484003 0.00475219 0.00467639 0.00461249 0.00456037 0.00451993 0.00449111 0.00447383 0.00446808 
0.0037449 0.00374974 0.00376425 0.00378848 0.00382245 0.00386622 0.00391988 0.00398352 0.00405724 0.00414117 0.00423546 0.00434027 0.00445577 0.00458216 0.00471967 0.00486851 0.00502895 0.00520124 0.00538567 0.00558253 0.00579212 0.00601475 0.0062507 0.00650026 0.00676367 0.00704112 0.00733271 0.00763848 0.00795831 0.00829192 0.00863884 0.00899832 0.00936926 0.00975017 0.0101391 0.0105338 0.010932 0.0113317 0.0117316 0.0121286 0.0125234 0.0128367 0.0130919 0.0132658 0.0134531 0.0136552 0.0138551 0.0140371 0.014187 0.0143036 0.0143909 0.0144477 0.0144706 0.0144578 0.01441 0.0143313 0.0142261 0.0140978 0.013949 0.0137815 0.0135957 0.0133898 0.0131575 0.0128886 0.0125813 0.0122382 0.0118661 0.0114788 0.0110869 0.0106965 0.0103112 0.00993313 0.00956367 0.00920405 0.00885527 0.0085182 0.00819359 0.00788206 0.0075841 0.00730008 0.00703026 0.00677479 0.00653375 0.00630714 0.00609487 0.00589685 0.00571291 0.00554287 0.00538654 0.00524371 0.00511416 0.00499768 0.00489408 0.00480315 0.00472473 0.00465864 0.00460477 0.00456299 0.00453322 0.00451538 0.00450943 
0.00377575 0.00378071 0.0037956 0.00382045 0.00385531 0.00390023 0.00395532 0.00402066 0.0040964 0.00418267 0.00427964 0.00438749 0.00450644 0.00463671 0.00477855 0.00493225 0.00509809 0.0052764 0.00546754 0.00567185 0.00588973 0.00612157 0.00636775 0.00662867 0.00690469 0.00719612 0.00750321 0.00782612 0.00816489 0.00851942 0.00888938 0.0092742 0.00967292 0.0100841 0.0105057 0.0109349 0.0113692 0.0118076 0.0122523 0.0126971 0.013069 0.0133818 0.0136542 0.0138879 0.0140697 0.0143036 0.0145403 0.0147554 0.0149173 0.0150344 0.0151266 0.0151892 0.0152149 0.0151987 0.0151409 0.0150497 0.014932 0.0147921 0.014633 0.0144574 0.0142677 0.0140633 0.0138345 0.0135519 0.0132174 0.0128344 0.012408 0.0119688 0.0115318 0.0111025 0.0106829 0.010274 0.00987641 0.00949098 0.00911839 0.00875935 0.00841446 0.00808424 0.00776909 0.00746929 0.00718502 0.00691636 0.00666329 0.00642574 0.00620356 0.00599657 0.00580456 0.00562727 0.00546446 0.00531586 0.0051812 0.00506024 0.00495273 0.00485844 0.00477717 0.00470872 0.00465295 0.00460971 0.0045789 0.00456044 0.00455429 
0.00380883 0.00381393 0.00382922 0.00385474 0.00389054 0.0039367 0.00399331 0.0040605 0.00413839 0.00422717 0.00432701 0.00443813 0.00456077 0.00469519 0.00484168 0.00500057 0.00517221 0.00535698 0.00555529 0.00576759 0.00599435 0.00623606 0.00649323 0.00676635 0.00705591 0.00736237 0.00768613 0.00802751 0.00838669 0.00876377 0.00915863 0.00957094 0.01 0.0104445 0.0109023 0.0113697 0.011842 0.0123178 0.0128143 0.0132161 0.0135081 0.0138158 0.0141205 0.0144394 0.0146863 0.0150048 0.0153145 0.0155818 0.0157444 0.0158381 0.0159364 0.0160096 0.0160418 0.0160224 0.0159483 0.0158394 0.0157061 0.0155523 0.0153808 0.0151955 0.0150024 0.0148093 0.014613 0.0143141 0.0139482 0.0135189 0.0130066 0.0124995 0.0120105 0.0115388 0.0110825 0.0106406 0.010213 0.00979981 0.00940159 0.00901884 0.00865207 0.00830169 0.00796799 0.00765119 0.00735135 0.00706847 0.00680245 0.00655313 0.00632028 0.00610366 0.00590296 0.00571787 0.00554809 0.00539329 0.00525315 0.00512737 0.00501566 0.00491776 0.00483343 0.00476244 0.00470462 0.00465981 0.00462789 0.00460877 0.00460241 
0.00384396 0.00384919 0.00386491 0.00389114 0.00392795 0.00397542 0.00403365 0.00410279 0.00418298 0.00427442 0.00437731 0.0044919 0.00461845 0.00475727 0.00490869 0.00507309 0.00525087 0.00544248 0.0056484 0.00586917 0.00610535 0.00635753 0.00662633 0.0069124 0.00721636 0.0075388 0.00788029 0.00824129 0.00862217 0.00902318 0.00944447 0.00988599 0.0103475 0.0108284 0.0113265 0.0118372 0.0123492 0.0128461 0.0133286 0.0136681 0.0139929 0.0143167 0.0146379 0.0149597 0.0153417 0.0157819 0.0161386 0.0163921 0.0165499 0.0166826 0.0168118 0.0169077 0.0169557 0.0169371 0.0168306 0.0166966 0.0165454 0.0163759 0.0161886 0.0159875 0.015784 0.0156057 0.0153367 0.0150033 0.0146128 0.0141647 0.0136447 0.0130554 0.0125136 0.0119999 0.0115065 0.0110306 0.0105714 0.0101288 0.0097033 0.00929526 0.00890511 0.00853319 0.00817969 0.00784473 0.00752829 0.00723025 0.00695043 0.00668857 0.00644436 0.00621748 0.00600753 0.00581416 0.00563696 0.00547556 0.00532959 0.00519868 0.00508251 0.00498077 0.00489318 0.0048195 0.0047595 0.00471303 0.00467993 0.00466011 0.00465351 
0.00388094 0.00388632 0.00390248 0.00392946 0.00396733 0.00401618 0.00407612 0.00414731 0.00422992 0.00432415 0.00443025 0.00454848 0.00467915 0.00482259 0.00497919 0.00514937 0.0053336 0.00553238 0.00574629 0.00597594 0.006222 0.00648517 0.00676621 0.00706588 0.00738498 0.00772424 0.00808439 0.00846603 0.00886967 0.00929573 0.00974451 0.0102163 0.0107116 0.0112308 0.0117742 0.0123389 0.012907 0.0134019 0.0137983 0.0141658 0.0145279 0.0148808 0.0152307 0.0155916 0.0160474 0.0165396 0.0168885 0.0171334 0.0173434 0.0175319 0.0176688 0.0178004 0.0178827 0.0178804 0.0177799 0.0176144 0.0174471 0.0172618 0.0170545 0.0168264 0.016585 0.0163548 0.0159772 0.0155956 0.0151737 0.0147088 0.0142191 0.0136079 0.0130312 0.0124814 0.0119523 0.0114419 0.0109498 0.0104763 0.0100219 0.00958709 0.00917216 0.00877742 0.00840296 0.00804879 0.00771479 0.00740074 0.00710635 0.00683126 0.00657507 0.00633736 0.00611768 0.00591556 0.00573055 0.0055622 0.00541008 0.00527377 0.0051529 0.00504712 0.0049561 0.00487957 0.00481729 0.00476905 0.00473471 0.00471415 0.0047073 
0.00391955 0.00392509 0.00394172 0.00396949 0.00400846 0.00405875 0.00412047 0.0041938 0.00427893 0.00437608 0.00448552 0.00460755 0.00474251 0.00489077 0.00505276 0.00522896 0.00541989 0.00562614 0.00584836 0.00608724 0.00634356 0.00661816 0.00691193 0.00722577 0.00756064 0.00791746 0.00829708 0.00870025 0.00912758 0.00957952 0.0100564 0.0105587 0.0110872 0.0116442 0.0122345 0.0128699 0.0134278 0.0139053 0.0143041 0.0147109 0.0151075 0.0155034 0.0158952 0.016307 0.0168235 0.0172727 0.0176404 0.0179377 0.0181809 0.0183748 0.0185355 0.0187 0.0188028 0.0188225 0.0187536 0.0185825 0.0184133 0.0182136 0.0179835 0.0177201 0.0174161 0.0170847 0.0167031 0.0162806 0.015816 0.0153082 0.0147602 0.0141612 0.0135648 0.0129837 0.0124195 0.0118735 0.0113469 0.0108408 0.0103559 0.00989276 0.00945172 0.00903295 0.00863646 0.00826213 0.00790972 0.0075789 0.00726926 0.00698033 0.00671162 0.0064626 0.00623273 0.00602147 0.0058283 0.00565269 0.00549414 0.0053522 0.00522642 0.00511641 0.00502181 0.00494231 0.00487763 0.00482756 0.00479192 0.00477059 0.00476349 
0.00395959 0.00396529 0.00398241 0.00401098 0.00405111 0.00410288 0.00416645 0.004242 0.00432974 0.00442992 0.00454282 0.00466878 0.00480817 0.00496141 0.00512897 0.00531139 0.00550924 0.00572318 0.00595395 0.00620235 0.00646925 0.00675563 0.00706251 0.00739099 0.00774217 0.00811717 0.00851701 0.00894254 0.00939441 0.00987296 0.0103783 0.0109104 0.0114699 0.0120586 0.0126824 0.013325 0.0138405 0.014337 0.0148112 0.0152809 0.0157388 0.0161837 0.016648 0.0171186 0.0176254 0.0180558 0.0184779 0.0188213 0.0190958 0.0193157 0.0195252 0.0197182 0.0198323 0.019859 0.019798 0.0196467 0.0194612 0.0192403 0.0189859 0.0186923 0.0183337 0.0179291 0.0175166 0.0170507 0.0165372 0.0159745 0.0153695 0.0147498 0.0141272 0.0135116 0.0129094 0.0123251 0.0117617 0.0112208 0.0107036 0.0102106 0.00974215 0.00929824 0.00887876 0.00848343 0.00811187 0.00776361 0.00743813 0.00713485 0.00685314 0.00659239 0.00635197 0.00613125 0.00592961 0.00574648 0.00558128 0.00543349 0.00530263 0.00518824 0.00508993 0.00500735 0.00494019 0.00488822 0.00485123 0.0048291 0.00482173 
0.00400082 0.00400669 0.00402431 0.00405372 0.00409502 0.00414833 0.00421381 0.00429164 0.00438206 0.00448534 0.00460181 0.00473181 0.00487575 0.0050341 0.00520737 0.00539615 0.00560108 0.0058229 0.00606241 0.00632052 0.00659824 0.00689665 0.00721694 0.0075604 0.00792834 0.00832207 0.0087428 0.00919154 0.00966891 0.010175 0.0107094 0.011271 0.0118588 0.0124725 0.0131123 0.0137265 0.0142685 0.0147993 0.0153287 0.0158611 0.016391 0.016904 0.0174229 0.0179371 0.0184436 0.0189492 0.0194107 0.0197981 0.0201048 0.020344 0.0206191 0.0208437 0.0209769 0.0210107 0.0209848 0.0208288 0.0206004 0.0203443 0.0200643 0.0197631 0.0193667 0.0188889 0.018424 0.0179086 0.0173409 0.0167033 0.016006 0.015384 0.0147285 0.0140705 0.013424 0.0127967 0.0121929 0.0116148 0.0110633 0.0105389 0.0100417 0.00957167 0.00912832 0.00871125 0.00831992 0.00795369 0.00761189 0.00729382 0.00699874 0.00672593 0.00647466 0.0062442 0.00603387 0.00584299 0.00567096 0.00551716 0.00538106 0.00526217 0.00516005 0.0050743 0.0050046 0.00495067 0.0049123 0.00488934 0.0048817 