<?xml version="1.0"?>
<VTKFile type="StructuredGrid" version="0.1">
    <StructuredGrid WholeExtent="0 100 0 100 0 0">
        <Piece Extent="0 100 0 100 0 0">
            <Points>
                <DataArray type="Float64" NumberOfComponents="3" format="ascii">
-15 -15 0
-15 -14.7 0
-15 -14.4 0
-15 -14.1 0
-15 -13.8 0
-15 -13.5 0
-15 -13.2 0
-15 -12.9 0
-15 -12.6 0
-15 -12.3 0
-15 -12 0
-15 -11.7 0
-15 -11.4 0
-15 -11.1 0
-15 -10.8 0
-15 -10.5 0
-15 -10.2 0
-15 -9.9 0
-15 -9.6 0
-15 -9.3 0
-15 -9 0
-15 -8.7 0
-15 -8.4 0
-15 -8.1 0
-15 -7.8 0
-15 -7.5 0
-15 -7.2 0
-15 -6.9 0
-15 -6.6 0
-15 -6.3 0
-15 -6 0
-15 -5.7 0
-15 -5.4 0
-15 -5.1 0
-15 -4.8 0
-15 -4.5 0
-15 -4.2 0
-15 -3.9 0
-15 -3.6 0
-15 -3.3 0
-15 -3 0
-15 -2.7 0
-15 -2.4 0
-15 -2.1 0
-15 -1.8 0
-15 -1.5 0
-15 -1.2 0
-15 -0.9 0
-15 -0.6 0
-15 -0.3 0
-15 0 0
-15 0.3 0
-15 0.6 0
-15 0.9 0
-15 1.2 0
-15 1.5 0
-15 1.8 0
-15 2.1 0
-15 2.4 0
-15 2.7 0
-15 3 0
-15 3.3 0
-15 3.6 0
-15 3.9 0
-15 4.2 0
-15 4.5 0
-15 4.8 0
-15 5.1 0
-15 5.4 0
-15 5.7 0
-15 6 0
-15 6.3 0
-15 6.6 0
-15 6.9 0
-15 7.2 0
-15 7.5 0
-15 7.8 0
-15 8.1 0
-15 8.4 0
-15 8.7 0
-15 9 0
-15 9.3 0
-15 9.6 0
-15 9.9 0
-15 10.2 0
-15 10.5 0
-15 10.8 0
-15 11.1 0
-15 11.4 0
-15 11.7 0
-15 12 0
-15 12.3 0
-15 12.6 0
-15 12.9 0
-15 13.2 0
-15 13.5 0
-15 13.8 0
-15 14.1 0
-15 14.4 0
-15 14.7 0
-15 15 0
-14.7 -15 0
-14.7 -14.7 0
-14.7 -14.4 0
-14.7 -14.1 0
-14.7 -13.8 0
-14.7 -13.5 0
-14.7 -13.2 0
-14.7 -12.9 0
-14.7 -12.6 0
-14.7 -12.3 0
-14.7 -12 0
-14.7 -11.7 0
-14.7 -11.4 0
-14.7 -11.1 0
-14.7 -10.8 0
-14.7 -10.5 0
-14.7 -10.2 0
-14.7 -9.9 0
-14.7 -9.6 0
-14.7 -9.3 0
-14.7 -9 0
-14.7 -8.7 0
-14.7 -8.4 0
-14.7 -8.1 0
-14.7 -7.8 0
-14.7 -7.5 0
-14.7 -7.2 0
-14.7 -6.9 0
-14.7 -6.6 0
-14.7 -6.3 0
-14.7 -6 0
-14.7 -5.7 0
-14.7 -5.4 0
-14.7 -5.1 0
-14.7 -4.8 0
-14.7 -4.5 0
-14.7 -4.2 0
-14.7 -3.9 0
-14.7 -3.6 0
-14.7 -3.3 0
-14.7 -3 0
-14.7 -2.7 0
-14.7 -2.4 0
-14.7 -2.1 0
-14.7 -1.8 0
-14.7 -1.5 0
-14.7 -1.2 0
-14.7 -0.9 0
-14.7 -0.6 0
-14.7 -0.3 0
-14.7 0 0
-14.7 0.3 0
-14.7 0.6 0
-14.7 0.9 0
-14.7 1.2 0
-14.7 1.5 0
-14.7 1.8 0
-14.7 2.1 0
-14.7 2.4 0
-14.7 2.7 0
-14.7 3 0
-14.7 3.3 0
-14.7 3.6 0
-14.7 3.9 0
-14.7 4.2 0
-14.7 4.5 0
-14.7 4.8 0
-14.7 5.1 0
-14.7 5.4 0
-14.7 5.7 0
-14.7 6 0
-14.7 6.3 0
-14.7 6.6 0
-14.7 6.9 0
-14.7 7.2 0
-14.7 7.5 0
-14.7 7.8 0
-14.7 8.1 0
-14.7 8.4 0
-14.7 8.7 0
-14.7 9 0
-14.7 9.3 0
-14.7 9.6 0
-14.7 9.9 0
-14.7 10.2 0
-14.7 10.5 0
-14.7 10.8 0
-14.7 11.1 0
-14.7 11.4 0
-14.7 11.7 0
-14.7 12 0
-14.7 12.3 0
-14.7 12.6 0
-14.7 12.9 0
-14.7 13.2 0
-14.7 13.5 0
-14.7 13.8 0
-14.7 14.1 0
-14.7 14.4 0
-14.7 14.7 0
-14.7 15 0
-14.4 -15 0
-14.4 -14.7 0
-14.4 -14.4 0
-14.4 -14.1 0
-14.4 -13.8 0
-14.4 -13.5 0
-14.4 -13.2 0
-14.4 -12.9 0
-14.4 -12.6 0
-14.4 -12.3 0
-14.4 -12 0
-14.4 -11.7 0
-14.4 -11.4 0
-14.4 -11.1 0
-14.4 -10.8 0
-14.4 -10.5 0
-14.4 -10.2 0
-14.4 -9.9 0
-14.4 -9.6 0
-14.4 -9.3 0
-14.4 -9 0
-14.4 -8.7 0
-14.4 -8.4 0
-14.4 -8.1 0
-14.4 -7.8 0
-14.4 -7.5 0
-14.4 -7.2 0
-14.4 -6.9 0
-14.4 -6.6 0
-14.4 -6.3 0
-14.4 -6 0
-14.4 -5.7 0
-14.4 -5.4 0
-14.4 -5.1 0
-14.4 -4.8 0
-14.4 -4.5 0
-14.4 -4.2 0
-14.4 -3.9 0
-14.4 -3.6 0
-14.4 -3.3 0
-14.4 -3 0
-14.4 -2.7 0
-14.4 -2.4 0
-14.4 -2.1 0
-14.4 -1.8 0
-14.4 -1.5 0
-14.4 -1.2 0
-14.4 -0.9 0
-14.4 -0.6 0
-14.4 -0.3 0
-14.4 0 0
-14.4 0.3 0
-14.4 0.6 0
-14.4 0.9 0
-14.4 1.2 0
-14.4 1.5 0
-14.4 1.8 0
-14.4 2.1 0
-14.4 2.4 0
-14.4 2.7 0
-14.4 3 0
-14.4 3.3 0
-14.4 3.6 0
-14.4 3.9 0
-14.4 4.2 0
-14.4 4.5 0
-14.4 4.8 0
-14.4 5.1 0
-14.4 5.4 0
-14.4 5.7 0
-14.4 6 0
-14.4 6.3 0
-14.4 6.6 0
-14.4 6.9 0
-14.4 7.2 0
-14.4 7.5 0
-14.4 7.8 0
-14.4 8.1 0
-14.4 8.4 0
-14.4 8.7 0
-14.4 9 0
-14.4 9.3 0
-14.4 9.6 0
-14.4 9.9 0
-14.4 10.2 0
-14.4 10.5 0
-14.4 10.8 0
-14.4 11.1 0
-14.4 11.4 0
-14.4 11.7 0
-14.4 12 0
-14.4 12.3 0
-14.4 12.6 0
-14.4 12.9 0
-14.4 13.2 0
-14.4 13.5 0
-14.4 13.8 0
-14.4 14.1 0
-14.4 14.4 0
-14.4 14.7 0
-14.4 15 0
-14.1 -15 0
-14.1 -14.7 0
-14.1 -14.4 0
-14.1 -14.1 0
-14.1 -13.8 0
-14.1 -13.5 0
-14.1 -13.2 0
-14.1 -12.9 0
-14.1 -12.6 0
-14.1 -12.3 0
-14.1 -12 0
-14.1 -11.7 0
-14.1 -11.4 0
-14.1 -11.1 0
-14.1 -10.8 0
-14.1 -10.5 0
-14.1 -10.2 0
-14.1 -9.9 0
-14.1 -9.6 0
-14.1 -9.3 0
-14.1 -9 0
-14.1 -8.7 0
-14.1 -8.4 0
-14.1 -8.1 0
-14.1 -7.8 0
-14.1 -7.5 0
-14.1 -7.2 0
-14.1 -6.9 0
-14.1 -6.6 0
-14.1 -6.3 0
-14.1 -6 0
-14.1 -5.7 0
-14.1 -5.4 0
-14.1 -5.1 0
-14.1 -4.8 0
-14.1 -4.5 0
-14.1 -4.2 0
-14.1 -3.9 0
-14.1 -3.6 0
-14.1 -3.3 0
-14.1 -3 0
-14.1 -2.7 0
-14.1 -2.4 0
-14.1 -2.1 0
-14.1 -1.8 0
-14.1 -1.5 0
-14.1 -1.2 0
-14.1 -0.9 0
-14.1 -0.6 0
-14.1 -0.3 0
-14.1 0 0
-14.1 0.3 0
-14.1 0.6 0
-14.1 0.9 0
-14.1 1.2 0
-14.1 1.5 0
-14.1 1.8 0
-14.1 2.1 0
-14.1 2.4 0
-14.1 2.7 0
-14.1 3 0
-14.1 3.3 0
-14.1 3.6 0
-14.1 3.9 0
-14.1 4.2 0
-14.1 4.5 0
-14.1 4.8 0
-14.1 5.1 0
-14.1 5.4 0
-14.1 5.7 0
-14.1 6 0
-14.1 6.3 0
-14.1 6.6 0
-14.1 6.9 0
-14.1 7.2 0
-14.1 7.5 0
-14.1 7.8 0
-14.1 8.1 0
-14.1 8.4 0
-14.1 8.7 0
-14.1 9 0
-14.1 9.3 0
-14.1 9.6 0
-14.1 9.9 0
-14.1 10.2 0
-14.1 10.5 0
-14.1 10.8 0
-14.1 11.1 0
-14.1 11.4 0
-14.1 11.7 0
-14.1 12 0
-14.1 12.3 0
-14.1 12.6 0
-14.1 12.9 0
-14.1 13.2 0
-14.1 13.5 0
-14.1 13.8 0
-14.1 14.1 0
-14.1 14.4 0
-14.1 14.7 0
-14.1 15 0
-13.8 -15 0
-13.8 -14.7 0
-13.8 -14.4 0
-13.8 -14.1 0
-13.8 -13.8 0
-13.8 -13.5 0
-13.8 -13.2 0
-13.8 -12.9 0
-13.8 -12.6 0
-13.8 -12.3 0
-13.8 -12 0
-13.8 -11.7 0
-13.8 -11.4 0
-13.8 -11.1 0
-13.8 -10.8 0
-13.8 -10.5 0
-13.8 -10.2 0
-13.8 -9.9 0
-13.8 -9.6 0
-13.8 -9.3 0
-13.8 -9 0
-13.8 -8.7 0
-13.8 -8.4 0
-13.8 -8.1 0
-13.8 -7.8 0
-13.8 -7.5 0
-13.8 -7.2 0
-13.8 -6.9 0
-13.8 -6.6 0
-13.8 -6.3 0
-13.8 -6 0
-13.8 -5.7 0
-13.8 -5.4 0
-13.8 -5.1 0
-13.8 -4.8 0
-13.8 -4.5 0
-13.8 -4.2 0
-13.8 -3.9 0
-13.8 -3.6 0
-13.8 -3.3 0
-13.8 -3 0
-13.8 -2.7 0
-13.8 -2.4 0
-13.8 -2.1 0
-13.8 -1.8 0
-13.8 -1.5 0
-13.8 -1.2 0
-13.8 -0.9 0
-13.8 -0.6 0
-13.8 -0.3 0
-13.8 0 0
-13.8 0.3 0
-13.8 0.6 0
-13.8 0.9 0
-13.8 1.2 0
-13.8 1.5 0
-13.8 1.8 0
-13.8 2.1 0
-13.8 2.4 0
-13.8 2.7 0
-13.8 3 0
-13.8 3.3 0
-13.8 3.6 0
-13.8 3.9 0
-13.8 4.2 0
-13.8 4.5 0
-13.8 4.8 0
-13.8 5.1 0
-13.8 5.4 0
-13.8 5.7 0
-13.8 6 0
-13.8 6.3 0
-13.8 6.6 0
-13.8 6.9 0
-13.8 7.2 0
-13.8 7.5 0
-13.8 7.8 0
-13.8 8.1 0
-13.8 8.4 0
-13.8 8.7 0
-13.8 9 0
-13.8 9.3 0
-13.8 9.6 0
-13.8 9.9 0
-13.8 10.2 0
-13.8 10.5 0
-13.8 10.8 0
-13.8 11.1 0
-13.8 11.4 0
-13.8 11.7 0
-13.8 12 0
-13.8 12.3 0
-13.8 12.6 0
-13.8 12.9 0
-13.8 13.2 0
-13.8 13.5 0
-13.8 13.8 0
-13.8 14.1 0
-13.8 14.4 0
-13.8 14.7 0
-13.8 15 0
-13.5 -15 0
-13.5 -14.7 0
-13.5 -14.4 0
-13.5 -14.1 0
-13.5 -13.8 0
-13.5 -13.5 0
-13.5 -13.2 0
-13.5 -12.9 0
-13.5 -12.6 0
-13.5 -12.3 0
-13.5 -12 0
-13.5 -11.7 0
-13.5 -11.4 0
-13.5 -11.1 0
-13.5 -10.8 0
-13.5 -10.5 0
-13.5 -10.2 0
-13.5 -9.9 0
-13.5 -9.6 0
-13.5 -9.3 0
-13.5 -9 0
-13.5 -8.7 0
-13.5 -8.4 0
-13.5 -8.1 0
-13.5 -7.8 0
-13.5 -7.5 0
-13.5 -7.2 0
-13.5 -6.9 0
-13.5 -6.6 0
-13.5 -6.3 0
-13.5 -6 0
-13.5 -5.7 0
-13.5 -5.4 0
-13.5 -5.1 0
-13.5 -4.8 0
-13.5 -4.5 0
-13.5 -4.2 0
-13.5 -3.9 0
-13.5 -3.6 0
-13.5 -3.3 0
-13.5 -3 0
-13.5 -2.7 0
-13.5 -2.4 0
-13.5 -2.1 0
-13.5 -1.8 0
-13.5 -1.5 0
-13.5 -1.2 0
-13.5 -0.9 0
-13.5 -0.6 0
-13.5 -0.3 0
-13.5 0 0
-13.5 0.3 0
-13.5 0.6 0
-13.5 0.9 0
-13.5 1.2 0
-13.5 1.5 0
-13.5 1.8 0
-13.5 2.1 0
-13.5 2.4 0
-13.5 2.7 0
-13.5 3 0
-13.5 3.3 0
-13.5 3.6 0
-13.5 3.9 0
-13.5 4.2 0
-13.5 4.5 0
-13.5 4.8 0
-13.5 5.1 0
-13.5 5.4 0
-13.5 5.7 0
-13.5 6 0
-13.5 6.3 0
-13.5 6.6 0
-13.5 6.9 0
-13.5 7.2 0
-13.5 7.5 0
-13.5 7.8 0
-13.5 8.1 0
-13.5 8.4 0
-13.5 8.7 0
-13.5 9 0
-13.5 9.3 0
-13.5 9.6 0
-13.5 9.9 0
-13.5 10.2 0
-13.5 10.5 0
-13.5 10.8 0
-13.5 11.1 0
-13.5 11.4 0
-13.5 11.7 0
-13.5 12 0
-13.5 12.3 0
-13.5 12.6 0
-13.5 12.9 0
-13.5 13.2 0
-13.5 13.5 0
-13.5 13.8 0
-13.5 14.1 0
-13.5 14.4 0
-13.5 14.7 0
-13.5 15 0
-13.2 -15 0
-13.2 -14.7 0
-13.2 -14.4 0
-13.2 -14.1 0
-13.2 -13.8 0
-13.2 -13.5 0
-13.2 -13.2 0
-13.2 -12.9 0
-13.2 -12.6 0
-13.2 -12.3 0
-13.2 -12 0
-13.2 -11.7 0
-13.2 -11.4 0
-13.2 -11.1 0
-13.2 -10.8 0
-13.2 -10.5 0
-13.2 -10.2 0
-13.2 -9.9 0
-13.2 -9.6 0
-13.2 -9.3 0
-13.2 -9 0
-13.2 -8.7 0
-13.2 -8.4 0
-13.2 -8.1 0
-13.2 -7.8 0
-13.2 -7.5 0
-13.2 -7.2 0
-13.2 -6.9 0
-13.2 -6.6 0
-13.2 -6.3 0
-13.2 -6 0
-13.2 -5.7 0
-13.2 -5.4 0
-13.2 -5.1 0
-13.2 -4.8 0
-13.2 -4.5 0
-13.2 -4.2 0
-13.2 -3.9 0
-13.2 -3.6 0
-13.2 -3.3 0
-13.2 -3 0
-13.2 -2.7 0
-13.2 -2.4 0
-13.2 -2.1 0
-13.2 -1.8 0
-13.2 -1.5 0
-13.2 -1.2 0
-13.2 -0.9 0
-13.2 -0.6 0
-13.2 -0.3 0
-13.2 0 0
-13.2 0.3 0
-13.2 0.6 0
-13.2 0.9 0
-13.2 1.2 0
-13.2 1.5 0
-13.2 1.8 0
-13.2 2.1 0
-13.2 2.4 0
-13.2 2.7 0
-13.2 3 0
-13.2 3.3 0
-13.2 3.6 0
-13.2 3.9 0
-13.2 4.2 0
-13.2 4.5 0
-13.2 4.8 0
-13.2 5.1 0
-13.2 5.4 0
-13.2 5.7 0
-13.2 6 0
-13.2 6.3 0
-13.2 6.6 0
-13.2 6.9 0
-13.2 7.2 0
-13.2 7.5 0
-13.2 7.8 0
-13.2 8.1 0
-13.2 8.4 0
-13.2 8.7 0
-13.2 9 0
-13.2 9.3 0
-13.2 9.6 0
-13.2 9.9 0
-13.2 10.2 0
-13.2 10.5 0
-13.2 10.8 0
-13.2 11.1 0
-13.2 11.4 0
-13.2 11.7 0
-13.2 12 0
-13.2 12.3 0
-13.2 12.6 0
-13.2 12.9 0
-13.2 13.2 0
-13.2 13.5 0
-13.2 13.8 0
-13.2 14.1 0
-13.2 14.4 0
-13.2 14.7 0
-13.2 15 0
-12.9 -15 0
-12.9 -14.7 0
-12.9 -14.4 0
-12.9 -14.1 0
-12.9 -13.8 0
-12.9 -13.5 0
-12.9 -13.2 0
-12.9 -12.9 0
-12.9 -12.6 0
-12.9 -12.3 0
-12.9 -12 0
-12.9 -11.7 0
-12.9 -11.4 0
-12.9 -11.1 0
-12.9 -10.8 0
-12.9 -10.5 0
-12.9 -10.2 0
-12.9 -9.9 0
-12.9 -9.6 0
-12.9 -9.3 0
-12.9 -9 0
-12.9 -8.7 0
-12.9 -8.4 0
-12.9 -8.1 0
-12.9 -7.8 0
-12.9 -7.5 0
-12.9 -7.2 0
-12.9 -6.9 0
-12.9 -6.6 0
-12.9 -6.3 0
-12.9 -6 0
-12.9 -5.7 0
-12.9 -5.4 0
-12.9 -5.1 0
-12.9 -4.8 0
-12.9 -4.5 0
-12.9 -4.2 0
-12.9 -3.9 0
-12.9 -3.6 0
-12.9 -3.3 0
-12.9 -3 0
-12.9 -2.7 0
-12.9 -2.4 0
-12.9 -2.1 0
-12.9 -1.8 0
-12.9 -1.5 0
-12.9 -1.2 0
-12.9 -0.9 0
-12.9 -0.6 0
-12.9 -0.3 0
-12.9 0 0
-12.9 0.3 0
-12.9 0.6 0
-12.9 0.9 0
-12.9 1.2 0
-12.9 1.5 0
-12.9 1.8 0
-12.9 2.1 0
-12.9 2.4 0
-12.9 2.7 0
-12.9 3 0
-12.9 3.3 0
-12.9 3.6 0
-12.9 3.9 0
-12.9 4.2 0
-12.9 4.5 0
-12.9 4.8 0
-12.9 5.1 0
-12.9 5.4 0
-12.9 5.7 0
-12.9 6 0
-12.9 6.3 0
-12.9 6.6 0
-12.9 6.9 0
-12.9 7.2 0
-12.9 7.5 0
-12.9 7.8 0
-12.9 8.1 0
-12.9 8.4 0
-12.9 8.7 0
-12.9 9 0
[...]
            <PointData>
                <DataArray type="Float64" Name="c1" format="ascii">
0.00314684 0.00315011 0.00315993 0.00317628 0.00319915 0.00322853 0.00326439 0.00330671 0.00335544 0.00341056 0.003472 0.00353971 0.00361361 0.00369362 0.00377964 0.00387157 0.00396927 0.00407259 0.00418137 0.00429543 0.00441454 0.00453847 0.00466695 0.00479968 0.00493634 0.00507657 0.00521995 0.00536607 0.00551445 0.00566457 0.00581589 0.00596781 0.00611971 0.00627092 0.00642075 0.00656846 0.0067133 0.00685448 0.00699123 0.00712275 0.00724823 0.0073669 0.00747798 0.00758075 0.0076745 0.00775858 0.00783241 0.00789545 0.00794726 0.00798748 0.00801581 0.00803209 0.00803621 0.00802818 0.00800811 0.0079762 0.00793273 0.00787809 0.00781273 0.00773718 0.00765204 0.00755794 0.00745559 0.00734573 0.0072291 0.0071065 0.0069787 0.0068465 0.0067107 0.00657205 0.00643132 0.00628924 0.00614652 0.00600382 0.00586179 0.00572104 0.00558213 0.00544561 0.00531196 0.00518164 0.00505509 0.0049327 0.00481481 0.00470176 0.00459385 0.00449135 0.00439449 0.00430349 0.00421855 0.00413985 0.00406753 0.00400172 0.00394256 0.00389013 0.00384453 0.00380582 0.00377407 0.00374933 0.00373163 0.003721 0.00371746 
0.0031486 0.00315187 0.00316171 0.00317808 0.003201 0.00323043 0.00326635 0.00330875 0.00335758 0.0034128 0.00347436 0.0035422 0.00361624 0.00369642 0.00378262 0.00387475 0.00397266 0.00407622 0.00418525 0.00429958 0.00441899 0.00454324 0.00467206 0.00480516 0.0049422 0.00508284 0.00522667 0.00537325 0.00552211 0.00567275 0.0058246 0.00597708 0.00612956 0.00628137 0.0064318 0.00658013 0.0067256 0.00686742 0.0070048 0.00713693 0.00726302 0.00738227 0.00749392 0.0075972 0.00769144 0.00777596 0.00785017 0.00791354 0.00796563 0.00800604 0.00803452 0.00805085 0.00805497 0.00804687 0.00802665 0.00799453 0.00795079 0.00789582 0.00783008 0.0077541 0.00766848 0.00757387 0.00747098 0.00736054 0.00724333 0.00712012 0.00699172 0.00685891 0.00672249 0.00658325 0.00644192 0.00629927 0.00615598 0.00601274 0.00587018 0.00572893 0.00558955 0.00545256 0.00531848 0.00518776 0.00506082 0.00493806 0.00481984 0.00470648 0.00459828 0.0044955 0.00439839 0.00430717 0.00422202 0.00414313 0.00407064 0.00400469 0.00394539 0.00389284 0.00384714 0.00380835 0.00377653 0.00375174 0.003734 0.00372335 0.0037198 
0.00315386 0.00315715 0.00316704 0.0031835 0.00320653 0.00323612 0.00327225 0.00331487 0.00336397 0.0034195 0.00348142 0.00354965 0.00362415 0.00370481 0.00379155 0.00388427 0.00398283 0.00408709 0.00419689 0.00431204 0.00443233 0.00455753 0.00468737 0.00482156 0.00495978 0.00510165 0.0052468 0.00539477 0.0055451 0.00569727 0.00585074 0.00600489 0.00615911 0.00631271 0.00646498 0.00661519 0.00676255 0.00690627 0.00704554 0.00717955 0.00730746 0.00742848 0.0075418 0.00764667 0.00774236 0.0078282 0.00790358 0.00796795 0.00802084 0.00806187 0.00809075 0.00810729 0.00811139 0.00810306 0.00808241 0.00804966 0.0080051 0.00794913 0.00788223 0.00780494 0.00771788 0.00762173 0.0075172 0.00740505 0.00728606 0.00716104 0.00703081 0.00689616 0.00675791 0.00661685 0.00647375 0.00632935 0.00618437 0.00603949 0.00589536 0.0057526 0.00561177 0.00547342 0.00533804 0.00520609 0.005078 0.00495416 0.00483492 0.00472062 0.00461154 0.00450796 0.0044101 0.0043182 0.00423243 0.00415297 0.00407997 0.00401356 0.00395386 0.00390096 0.00385496 0.00381591 0.00378389 0.00375894 0.00374109 0.00373037 0.00372679 
0.0031626 0.00316592 0.00317589 0.0031925 0.00321574 0.00324559 0.00328204 0.00332505 0.00337461 0.00343066 0.00349316 0.00356206 0.00363728 0.00371876 0.00380641 0.00390011 0.00399974 0.00410517 0.00421624 0.00433276 0.00445453 0.00458132 0.00471287 0.00484888 0.00498904 0.00513299 0.00528033 0.00543063 0.00558341 0.00573815 0.00589431 0.00605128 0.00620841 0.00636501 0.00652037 0.00667371 0.00682426 0.00697118 0.00711363 0.00725078 0.00738177 0.00750575 0.0076219 0.00772942 0.00782757 0.00791564 0.00799298 0.00805903 0.00811328 0.00815535 0.00818492 0.00820179 0.00820586 0.00819715 0.00817577 0.00814195 0.00809601 0.00803835 0.00796949 0.00789 0.00780052 0.00770176 0.00759447 0.00747943 0.00735747 0.00722941 0.00709609 0.00695836 0.00681703 0.00667293 0.00652684 0.00637952 0.00623171 0.00608409 0.00593733 0.00579204 0.00564881 0.00550816 0.00537061 0.00523662 0.0051066 0.00498095 0.00486003 0.00474415 0.00463362 0.00452868 0.00442958 0.00433654 0.00424973 0.00416933 0.00409548 0.00402831 0.00396794 0.00391446 0.00386795 0.00382849 0.00379613 0.00377091 0.00375287 0.00374204 0.00373843 
0.00317479 0.00317815 0.00318824 0.00320505 0.00322857 0.00325879 0.00329569 0.00333925 0.00338943 0.00344621 0.00350953 0.00357936 0.00365561 0.00373823 0.00382713 0.00392221 0.00402335 0.00413041 0.00424326 0.0043617 0.00448554 0.00461456 0.00474849 0.00488707 0.00502996 0.00517681 0.00532724 0.0054808 0.00563703 0.0057954 0.00595535 0.00611628 0.00627751 0.00643836 0.00659808 0.00675587 0.00691092 0.00706237 0.00720934 0.00735095 0.00748629 0.00761448 0.00773465 0.00784596 0.0079476 0.00803884 0.00811898 0.00818741 0.00824361 0.00828714 0.00831769 0.00833503 0.00833906 0.0083298 0.00830737 0.00827202 0.00822409 0.00816403 0.00809238 0.00800975 0.00791683 0.00781436 0.00770315 0.00758401 0.00745782 0.00732545 0.00718777 0.00704566 0.00689999 0.00675159 0.00660128 0.00644985 0.00629804 0.00614657 0.0059961 0.00584725 0.00570063 0.00555677 0.00541617 0.0052793 0.00514658 0.0050184 0.00489511 0.00477703 0.00466445 0.00455762 0.00445678 0.00436214 0.00427388 0.00419216 0.00411712 0.0040489 0.00398759 0.00393329 0.00388608 0.00384603 0.00381319 0.0037876 0.0037693 0.00375831 0.00375464 
0.00319037 0.00319378 0.00320403 0.0032211 0.00324498 0.00327567 0.00331315 0.0033574 0.0034084 0.0034661 0.00353048 0.00360149 0.00367907 0.00376316 0.00385367 0.00395051 0.00405358 0.00416275 0.00427787 0.00439878 0.00452529 0.00465717 0.00479419 0.00493606 0.00508247 0.00523307 0.00538748 0.00554527 0.00570595 0.00586901 0.00603389 0.00619995 0.00636652 0.00653289 0.00669828 0.00686187 0.0070228 0.00718017 0.00733305 0.00748049 0.00762154 0.00775525 0.00788069 0.00799696 0.00810319 0.00819858 0.00828239 0.00835396 0.00841271 0.00845818 0.00849001 0.00850796 0.00851193 0.00850193 0.00847811 0.00844073 0.00839019 0.00832696 0.00825163 0.00816487 0.00806742 0.00796009 0.00784373 0.00771923 0.00758751 0.00744949 0.00730612 0.00715831 0.00700696 0.00685297 0.00669718 0.0065404 0.00638341 0.00622693 0.00607166 0.00591822 0.00576721 0.00561919 0.00547466 0.00533408 0.00519787 0.00506643 0.00494009 0.00481917 0.00470395 0.0045947 0.00449162 0.00439493 0.0043048 0.00422139 0.00414483 0.00407524 0.00401273 0.00395738 0.00390927 0.00386846 0.003835 0.00380894 0.0037903 0.00377911 0.00377538 
0.00320928 0.00321275 0.00322319 0.00324057 0.0032649 0.00329616 0.00333435 0.00337944 0.00343142 0.00349026 0.00355593 0.00362838 0.00370757 0.00379344 0.00388592 0.00398492 0.00409035 0.00420209 0.00432 0.00444392 0.00457368 0.00470908 0.00484986 0.00499577 0.00514649 0.0053017 0.005461 0.00562398 0.00579015 0.00595899 0.00612994 0.00630235 0.00647553 0.00664874 0.00682118 0.00699198 0.00716023 0.00732498 0.00748523 0.00763996 0.00778815 0.00792877 0.00806081 0.00818329 0.00829527 0.00839588 0.00848431 0.00855981 0.00862178 0.00866968 0.00870311 0.00872182 0.0087257 0.00871475 0.00868916 0.00864922 0.00859536 0.00852813 0.00844818 0.00835622 0.00825309 0.00813966 0.00801685 0.00788564 0.007747 0.00760195 0.00745148 0.00729657 0.00713818 0.00697725 0.00681466 0.00665127 0.00648787 0.00632521 0.00616401 0.00600491 0.00584851 0.00569538 0.00554601 0.00540088 0.0052604 0.00512495 0.00499487 0.00487048 0.00475204 0.00463981 0.004534 0.00443481 0.00434239 0.00425691 0.00417849 0.00410724 0.00404326 0.00398663 0.00393742 0.00389569 0.00386149 0.00383485 0.0038158 0.00380437 0.00380055 
0.00323143 0.00323498 0.00324563 0.00326339 0.00328824 0.00332017 0.00335919 0.00340528 0.00345842 0.00351859 0.00358577 0.00365993 0.00374101 0.00382899 0.00392378 0.00402533 0.00413354 0.0042483 0.0043695 0.004497 0.00463061 0.00477015 0.00491539 0.00506608 0.00522193 0.0053826 0.00554772 0.00571687 0.00588958 0.00606533 0.00624353 0.00642354 0.00660465 0.00678608 0.00696701 0.0071465 0.0073236 0.00749728 0.00766647 0.00783005 0.00798691 0.00813592 0.00827599 0.00840603 0.00852502 0.008632 0.00872605 0.00880638 0.00887227 0.00892314 0.00895853 0.00897816 0.00898189 0.00896977 0.00894198 0.00889888 0.00884095 0.00876881 0.00868319 0.00858489 0.00847482 0.00835394 0.00822329 0.00808392 0.0079369 0.00778332 0.00762426 0.00746078 0.00729391 0.00712462 0.00695387 0.00678254 0.00661146 0.00644142 0.00627314 0.00610729 0.00594447 0.00578525 0.00563014 0.00547959 0.00533404 0.00519384 0.00505934 0.00493083 0.00480859 0.00469284 0.0045838 0.00448164 0.00438654 0.00429861 0.004218 0.00414479 0.00407908 0.00402094 0.00397044 0.00392762 0.00389254 0.00386522 0.00384569 0.00383396 0.00383005 
0.00325673 0.00326037 0.00327127 0.00328945 0.0033149 0.00334761 0.00338758 0.00343481 0.00348928 0.00355098 0.0036199 0.00369601 0.00377928 0.00386967 0.00396713 0.0040716 0.00418301 0.00430127 0.00442626 0.00455786 0.00469592 0.00484025 0.00499065 0.00514687 0.00530865 0.00547566 0.00564753 0.00582386 0.00600419 0.00618798 0.00637466 0.00656357 0.00675398 0.00694509 0.00713602 0.00732579 0.00751337 0.00769764 0.00787744 0.00805155 0.00821874 0.00837776 0.0085274 0.00866647 0.00879383 0.00890842 0.00900922 0.00909533 0.00916594 0.00922037 0.00925811 0.00927882 0.00928236 0.00926878 0.00923832 0.00919138 0.00912854 0.00905049 0.00895804 0.00885212 0.00873375 0.00860398 0.00846396 0.00831486 0.00815787 0.00799417 0.00782494 0.00765132 0.00747443 0.00729531 0.00711496 0.00693431 0.00675425 0.00657557 0.00639903 0.00622529 0.006055 0.0058887 0.00572692 0.0055701 0.00541866 0.00527297 0.00513335 0.00500009 0.00487344 0.00475363 0.00464086 0.0045353 0.00443708 0.00434635 0.00426321 0.00418774 0.00412004 0.00406017 0.00400818 0.00396412 0.00392802 0.00389992 0.00387983 0.00386777 0.00386375 
0.00328507 0.0032888 0.0033 0.00331865 0.00334477 0.00337835 0.0034194 0.00346791 0.00352388 0.00358731 0.00365818 0.00373649 0.00382222 0.00391534 0.00401581 0.00412358 0.00423861 0.00436081 0.00449009 0.00462635 0.00476944 0.0049192 0.00507545 0.00523797 0.00540649 0.00558071 0.00576029 0.00594482 0.00613386 0.00632689 0.00652331 0.00672248 0.00692363 0.00712594 0.00732847 0.0075302 0.00773001 0.00792668 0.00811892 0.00830539 0.0084847 0.00865548 0.00881637 0.00896607 0.0091033 0.00922688 0.00933567 0.00942864 0.00950486 0.00956352 0.00960404 0.00962602 0.00962929 0.00961393 0.00958024 0.0095287 0.00945999 0.00937489 0.00927436 0.00915942 0.00903122 0.00889097 0.00873992 0.00857939 0.00841069 0.00823514 0.00805403 0.00786861 0.00768006 0.00748953 0.00729807 0.00710667 0.00691625 0.00672764 0.0065416 0.00635884 0.00617999 0.00600561 0.00583621 0.00567224 0.0055141 0.00536216 0.00521672 0.00507806 0.00494642 0.00482202 0.00470502 0.00459559 0.00449387 0.00439996 0.00431396 0.00423595 0.004166 0.00410417 0.0040505 0.00400503 0.00396779 0.00393881 0.00391809 0.00390566 0.00390151 
0.00331633 0.00332017 0.00333168 0.00335086 0.00337772 0.00341227 0.00345451 0.00350444 0.00356208 0.00362742 0.00370047 0.00378123 0.00386968 0.00396583 0.00406965 0.0041811 0.00430015 0.00442675 0.00456081 0.00470226 0.00485097 0.00500681 0.00516961 0.00533917 0.00551525 0.00569758 0.00588582 0.0060796 0.00627848 0.00648195 0.00668942 0.00690024 0.00711364 0.00732876 0.00754462 0.00776013 0.00797405 0.00818508 0.00839175 0.00859258 0.00878599 0.00897046 0.00914446 0.00930653 0.00945527 0.00958936 0.00970753 0.00980857 0.00989141 0.00995509 0.00999888 0.0100223 0.0100252 0.0100077 0.00997013 0.00991311 0.00983743 0.00974404 0.00963399 0.00950847 0.00936877 0.00921625 0.00905234 0.0088785 0.00869622 0.00850694 0.0083121 0.00811306 0.00791113 0.00770751 0.00750335 0.00729969 0.00709747 0.00689758 0.00670079 0.00650782 0.0063193 0.0061358 0.00595782 0.00578581 0.00562016 0.0054612 0.00530924 0.00516454 0.00502733 0.00489778 0.00477607 0.00466233 0.00455669 0.00445924 0.00437006 0.00428922 0.00421677 0.00415276 0.00409722 0.00405019 0.00401168 0.00398172 0.0039603 0.00394745 0.00394317 
0.00335037 0.00335432 0.00336617 0.00338593 0.00341361 0.00344922 0.00349276 0.00354425 0.00360371 0.00367115 0.00374659 0.00383003 0.00392148 0.00402096 0.00412845 0.00424395 0.00436743 0.00449886 0.00463819 0.00478536 0.00494027 0.00510282 0.00527286 0.00545022 0.00563469 0.00582602 0.0060239 0.00622798 0.00643784 0.00665299 0.00687287 0.00709681 0.00732404 0.00755367 0.00778469 0.00801591 0.00824602 0.00847354 0.00869686 0.00891426 0.00912397 0.00932424 0.00951336 0.00968972 0.00985178 0.00999808 0.0101272 0.0102377 0.0103283 0.0103979 0.0104456 0.0104707 0.0104731 0.0104529 0.0104107 0.0103472 0.0102633 0.0101602 0.010039 0.0099012 0.00974812 0.00958137 0.00940255 0.00921333 0.00901537 0.0088103 0.00859972 0.00838512 0.00816793 0.00794946 0.00773091 0.00751338 0.00729788 0.00708531 0.00687646 0.00667206 0.00647274 0.00627908 0.00609155 0.0059106 0.00573659 0.00556986 0.00541068 0.0052593 0.00511591 0.00498069 0.00485378 0.00473529 0.00462533 0.00452398 0.0044313 0.00434734 0.00427214 0.00420574 0.00414816 0.00409941 0.00405951 0.00402846 0.00400629 0.00399298 0.00398854 
0.00338702 0.0033911 0.00340333 0.00342372 0.00345228 0.00348903 0.00353399 0.00358717 0.00364861 0.00371833 0.00379635 0.00388271 0.00397742 0.00408051 0.004192 0.00431189 0.0044402 0.0045769 0.00472198 0.00487539 0.00503708 0.00520697 0.00538494 0.00557085 0.00576452 0.00596574 0.00617424 0.00638969 0.0066117 0.00683981 0.00707348 0.00731205 0.00755476 0.0078007 0.00804882 0.00829787 0.00854641 0.0087928 0.00903521 0.00927167 0.00950012 0.00971854 0.00992501 0.0101177 0.0102951 0.0104555 0.0105973 0.0107189 0.0108188 0.0108954 0.0109476 0.0109747 0.0109764 0.0109529 0.0109051 0.0108339 0.0107404 0.0106259 0.0104919 0.0103397 0.0101712 0.00998801 0.00979201 0.00958509 0.00936914 0.00914602 0.00891749 0.00868523 0.00845077 0.00821554 0.00798081 0.00774776 0.00751741 0.0072907 0.00706844 0.00685136 0.00664008 0.00643518 0.00623712 0.00604631 0.00586313 0.00568786 0.00552076 0.00536205 0.00521191 0.00507048 0.00493788 0.00481421 0.00469955 0.00459395 0.00449745 0.0044101 0.00433191 0.0042629 0.00420309 0.00415247 0.00411106 0.00407885 0.00405584 0.00404203 0.00403743 
0.00342614 0.00343035 0.00344299 0.00346405 0.00349356 0.00353154 0.00357802 0.00363302 0.00369659 0.00376875 0.00384956 0.00393905 0.00403727 0.00414425 0.00426005 0.00438469 0.0045182 0.0046606 0.00481189 0.00497206 0.00514109 0.00531893 0.00550551 0.00570071 0.00590441 0.00611642 0.0063365 0.00656439 0.00679973 0.00704209 0.00729096 0.00754572 0.00780563 0.00806977 0.00833707 0.00860622 0.00887566 0.00914357 0.00940784 0.00966616 0.0099161 0.0101553 0.0103815 0.0105929 0.0107877 0.0109642 0.0111208 0.0112555 0.0113663 0.0114514 0.011509 0.0115382 0.0115389 0.0115114 0.0114569 0.0113765 0.0112718 0.0111441 0.0109951 0.0108265 0.0106402 0.010438 0.0102223 0.00999507 0.00975856 0.00951487 0.00926599 0.00901376 0.00875988 0.00850586 0.00825307 0.00800273 0.00775591 0.00751355 0.00727649 0.00704544 0.00682103 0.0066038 0.00639421 0.00619265 0.00599944 0.00581486 0.00563915 0.00547248 0.00531501 0.00516685 0.00502809 0.00489881 0.00477905 0.00466886 0.00456825 0.00447723 0.00439582 0.004324 0.00426178 0.00420916 0.00416611 0.00413264 0.00410874 0.0040944 0.00408962 
0.00346755 0.0034719 0.00348496 0.00350674 0.00353727 0.00357656 0.00362465 0.00368159 0.00374743 0.0038222 0.00390598 0.00399882 0.00410078 0.00421194 0.00433234 0.00446206 0.00460115 0.00474965 0.0049076 0.00507503 0.00525195 0.00543835 0.0056342 0.00583943 0.00605395 0.00627763 0.00651028 0.00675167 0.00700151 0.00725942 0.00752493 0.00779748 0.00807635 0.00836067 0.00864934 0.00894104 0.00923409 0.00952648 0.00981577 0.0100992 0.0103738 0.0106366 0.0108853 0.0111176 0.0113321 0.011527 0.0117007 0.0118509 0.011975 0.0120703 0.0121345 0.0121662 0.0121653 0.0121327 0.0120699 0.0119787 0.0118608 0.0117179 0.0115518 0.0113643 0.0111574 0.0109336 0.0106951 0.0104447 0.0101847 0.00991765 0.00964576 0.00937107 0.00909543 0.00882046 0.00854761 0.00827814 0.00801315 0.0077536 0.0075003 0.00725398 0.00701524 0.00678459 0.00656246 0.00634922 0.00614516 0.00595052 0.00576549 0.00559024 0.00542486 0.00526946 0.00512408 0.00498877 0.00486355 0.00474843 0.0046434 0.00454846 0.00446359 0.00438878 0.00432399 0.00426921 0.00422442 0.00418961 0.00416475 0.00414984 0.00414487 
0.00351104 0.00351554 0.00352906 0.0035516 0.00358319 0.00362388 0.00367368 0.00373268 0.00380091 0.00387845 0.00396538 0.00406177 0.00416771 0.00428328 0.00440858 0.0045437 0.00468871 0.00484371 0.00500876 0.00518393 0.00536927 0.00556482 0.00577058 0.00598655 0.00621268 0.0064489 0.00669507 0.00695103 0.00721654 0.0074913 0.00777489 0.00806683 0.00836647 0.00867298 0.00898533 0.00930219 0.00962183 0.00994204 0.01026 0.0105724 0.0108753 0.0111651 0.0114389 0.0116947 0.011931 0.0121468 0.0123403 0.012509 0.0126494 0.0127575 0.0128298 0.0128643 0.0128608 0.0128214 0.0127484 0.0126443 0.0125112 0.0123509 0.0121651 0.011956 0.0117257 0.0114768 0.0112124 0.0109353 0.0106486 0.0103551 0.0100573 0.00975739 0.00945749 0.00915928 0.00886427 0.00857375 0.00828883 0.00801048 0.00773949 0.00747657 0.00722227 0.0069771 0.00674143 0.0065156 0.00629985 0.0060944 0.00589938 0.00571492 0.00554109 0.00537794 0.00522549 0.00508375 0.0049527 0.00483233 0.00472261 0.00462349 0.00453495 0.00445694 0.00438943 0.00433237 0.00428573 0.00424949 0.00422362 0.0042081 0.00420293 
0.00355642 0.00356108 0.00357507 0.00359842 0.00363114 0.00367327 0.00372489 0.00378604 0.0038568 0.00393725 0.00402749 0.00412763 0.00423775 0.00435799 0.00448846 0.00462927 0.00478055 0.00494242 0.00511498 0.00529835 0.00549262 0.00569788 0.00591419 0.00614158 0.00638009 0.00662968 0.00689031 0.00716187 0.0074442 0.00773708 0.00804018 0.00835311 0.00867531 0.00900606 0.00934444 0.00968919 0.0100386 0.0103905 0.0107415 0.0110875 0.0114234 0.0117439 0.0120457 0.012327 0.012587 0.012826 0.0130427 0.0132339 0.0133949 0.0135198 0.0136024 0.0136396 0.0136318 0.0135829 0.013497 0.0133776 0.0132269 0.0130468 0.012839 0.0126052 0.0123479 0.0120704 0.011776 0.0114684 0.0111513 0.0108278 0.0105008 0.0101728 0.009846 0.00952212 0.00920274 0.00888918 0.00858253 0.00828374 0.00799358 0.0077127 0.00744163 0.00718083 0.00693062 0.00669129 0.00646304 0.00624603 0.00604036 0.00584609 0.00566326 0.00549188 0.00533192 0.00518336 0.00504614 0.00492022 0.00480553 0.004702 0.00460958 0.0045282 0.00445781 0.00439834 0.00434975 0.004312 0.00428506 0.00426891 0.00426353 
0.00360348 0.0036083 0.00362279 0.00364697 0.00368086 0.00372453 0.00377803 0.00384143 0.00391483 0.00399833 0.00409205 0.0041961 0.00431062 0.00443574 0.00457163 0.00471842 0.00487628 0.00504537 0.00522584 0.00541785 0.00562153 0.00583703 0.00606447 0.00630395 0.00655556 0.00681935 0.00709533 0.00738349 0.00768376 0.00799599 0.00831999 0.00865546 0.00900198 0.00935899 0.00972573 0.0101011 0.0104838 0.0108714 0.0112607 0.0116466 0.0120214 0.0123769 0.0127095 0.0130179 0.0133023 0.0135666 0.0138104 0.0140296 0.0142182 0.0143658 0.014462 0.0145016 0.0144855 0.0144226 0.0143203 0.0141828 0.0140124 0.0138103 0.0135778 0.0133161 0.0130279 0.0127171 0.0123882 0.0120456 0.0116937 0.0113363 0.0109766 0.0106173 0.0102607 0.00990861 0.00956259 0.00922393 0.00889371 0.00857281 0.00826197 0.00796178 0.00767273 0.00739519 0.00712946 0.00687574 0.00663418 0.00640489 0.00618792 0.00598327 0.00579092 0.00561084 0.00544296 0.0052872 0.00514348 0.00501171 0.0048918 0.00478364 0.00468714 0.00460223 0.00452881 0.00446682 0.00441618 0.00437686 0.0043488 0.00433198 0.00432638 