<?xml version="1.0"?>
<VTKFile type="StructuredGrid" version="0.1">
    <StructuredGrid WholeExtent="0 100 0 100 0 0">
        <Piece Extent="0 100 0 100 0 0">
            <Points>
                <DataArray type="Float64" NumberOfComponents="3" format="ascii">
-15 -15 0
-15 -14.7 0
-15 -14.4 0
-15 -14.1 0
-15 -13.8 0
-15 -13.5 0
-15 -13.2 0
-15 -12.9 0
-15 -12.6 0
-15 -12.3 0
-15 -12 0
-15 -11.7 0
-15 -11.4 0
-15 -11.1 0
-15 -10.8 0
-15 -10.5 0
-15 -10.2 0
-15 -9.9 0
-15 -9.6 0
-15 -9.3 0
-15 -9 0
-15 -8.7 0
-15 -8.4 0
-15 -8.1 0
-15 -7.8 0
-15 -7.5 0
-15 -7.2 0
-15 -6.9 0
-15 -6.6 0
-15 -6.3 0
-15 -6 0
-15 -5.7 0
-15 -5.4 0
-15 -5.1 0
-15 -4.8 0
-15 -4.5 0
-15 -4.2 0
-15 -3.9 0
-15 -3.6 0
-15 -3.3 0
-15 -3 0
-15 -2.7 0
-15 -2.4 0
-15 -2.1 0
-15 -1.8 0
-15 -1.5 0
-15 -1.2 0
-15 -0.9 0
-15 -0.6 0
-15 -0.3 0
-15 0 0
-15 0.3 0
-15 0.6 0
-15 0.9 0
-15 1.2 0
-15 1.5 0
-15 1.8 0
-15 2.1 0
-15 2.4 0
-15 2.7 0
-15 3 0
-15 3.3 0
-15 3.6 0
-15 3.9 0
-15 4.2 0
-15 4.5 0
-15 4.8 0
-15 5.1 0
-15 5.4 0
-15 5.7 0
-15 6 0
-15 6.3 0
-15 6.6 0
-15 6.9 0
-15 7.2 0
-15 7.5 0
-15 7.8 0
-15 8.1 0
-15 8.4 0
-15 8.7 0
-15 9 0
-15 9.3 0
-15 9.6 0
-15 9.9 0
-15 10.2 0
-15 10.5 0
-15 10.8 0
-15 11.1 0
-15 11.4 0
-15 11.7 0
-15 12 0
-15 12.3 0
-15 12.6 0
-15 12.9 0
-15 13.2 0
-15 13.5 0
-15 13.8 0
-15 14.1 0
-15 14.4 0
-15 14.7 0
-15 15 0
-14.7 -15 0
-14.7 -14.7 0
-14.7 -14.4 0
-14.7 -14.1 0
-14.7 -13.8 0
-14.7 -13.5 0
-14.7 -13.2 0
-14.7 -12.9 0
-14.7 -12.6 0
-14.7 -12.3 0
-14.7 -12 0
-14.7 -11.7 0
-14.7 -11.4 0
-14.7 -11.1 0
-14.7 -10.8 0
-14.7 -10.5 0
-14.7 -10.2 0
-14.7 -9.9 0
-14.7 -9.6 0
-14.7 -9.3 0
-14.7 -9 0
-14.7 -8.7 0
-14.7 -8.4 0
-14.7 -8.1 0
-14.7 -7.8 0
-14.7 -7.5 0
-14.7 -7.2 0
-14.7 -6.9 0
-14.7 -6.6 0
-14.7 -6.3 0
-14.7 -6 0
-14.7 -5.7 0
-14.7 -5.4 0
-14.7 -5.1 0
-14.7 -4.8 0
-14.7 -4.5 0
-14.7 -4.2 0
-14.7 -3.9 0
-14.7 -3.6 0
-14.7 -3.3 0
-14.7 -3 0
-14.7 -2.7 0
-14.7 -2.4 0
-14.7 -2.1 0
-14.7 -1.8 0
-14.7 -1.5 0
-14.7 -1.2 0
-14.7 -0.9 0
-14.7 -0.6 0
-14.7 -0.3 0
-14.7 0 0
-14.7 0.3 0
-14.7 0.6 0
-14.7 0.9 0
-14.7 1.2 0
-14.7 1.5 0
-14.7 1.8 0
-14.7 2.1 0
-14.7 2.4 0
-14.7 2.7 0
-14.7 3 0
-14.7 3.3 0
-14.7 3.6 0
-14.7 3.9 0
-14.7 4.2 0
-14.7 4.5 0
-14.7 4.8 0
-14.7 5.1 0
-14.7 5.4 0
-14.7 5.7 0
-14.7 6 0
-14.7 6.3 0
-14.7 6.6 0
-14.7 6.9 0
-14.7 7.2 0
-14.7 7.5 0
-14.7 7.8 0
-14.7 8.1 0
-14.7 8.4 0
-14.7 8.7 0
-14.7 9 0
-14.7 9.3 0
-14.7 9.6 0
-14.7 9.9 0
-14.7 10.2 0
-14.7 10.5 0
-14.7 10.8 0
-14.7 11.1 0
-14.7 11.4 0
-14.7 11.7 0
-14.7 12 0
-14.7 12.3 0
-14.7 12.6 0
-14.7 12.9 0
-14.7 13.2 0
-14.7 13.5 0
-14.7 13.8 0
-14.7 14.1 0
-14.7 14.4 0
-14.7 14.7 0
-14.7 15 0
-14.4 -15 0
-14.4 -14.7 0
-14.4 -14.4 0
-14.4 -14.1 0
-14.4 -13.8 0
-14.4 -13.5 0
-14.4 -13.2 0
-14.4 -12.9 0
-14.4 -12.6 0
-14.4 -12.3 0
-14.4 -12 0
-14.4 -11.7 0
-14.4 -11.4 0
-14.4 -11.1 0
-14.4 -10.8 0
-14.4 -10.5 0
-14.4 -10.2 0
-14.4 -9.9 0
-14.4 -9.6 0
-14.4 -9.3 0
-14.4 -9 0
-14.4 -8.7 0
-14.4 -8.4 0
-14.4 -8.1 0
-14.4 -7.8 0
-14.4 -7.5 0
-14.4 -7.2 0
-14.4 -6.9 0
-14.4 -6.6 0
-14.4 -6.3 0
-14.4 -6 0
-14.4 -5.7 0
-14.4 -5.4 0
-14.4 -5.1 0
-14.4 -4.8 0
-14.4 -4.5 0
-14.4 -4.2 0
-14.4 -3.9 0
-14.4 -3.6 0
-14.4 -3.3 0
-14.4 -3 0
-14.4 -2.7 0
-14.4 -2.4 0
-14.4 -2.1 0
-14.4 -1.8 0
-14.4 -1.5 0
-14.4 -1.2 0
-14.4 -0.9 0
-14.4 -0.6 0
-14.4 -0.3 0
-14.4 0 0
-14.4 0.3 0
-14.4 0.6 0
-14.4 0.9 0
-14.4 1.2 0
-14.4 1.5 0
-14.4 1.8 0
-14.4 2.1 0
-14.4 2.4 0
-14.4 2.7 0
-14.4 3 0
-14.4 3.3 0
-14.4 3.6 0
-14.4 3.9 0
-14.4 4.2 0
-14.4 4.5 0
-14.4 4.8 0
-14.4 5.1 0
-14.4 5.4 0
-14.4 5.7 0
-14.4 6 0
-14.4 6.3 0
-14.4 6.6 0
-14.4 6.9 0
-14.4 7.2 0
-14.4 7.5 0
-14.4 7.8 0
-14.4 8.1 0
-14.4 8.4 0
-14.4 8.7 0
-14.4 9 0
-14.4 9.3 0
-14.4 9.6 0
-14.4 9.9 0
-14.4 10.2 0
-14.4 10.5 0
-14.4 10.8 0
-14.4 11.1 0
-14.4 11.4 0
-14.4 11.7 0
-14.4 12 0
-14.4 12.3 0
-14.4 12.6 0
-14.4 12.9 0
-14.4 13.2 0
-14.4 13.5 0
-14.4 13.8 0
-14.4 14.1 0
-14.4 14.4 0
-14.4 14.7 0
-14.4 15 0
-14.1 -15 0
-14.1 -14.7 0
-14.1 -14.4 0
-14.1 -14.1 0
-14.1 -13.8 0
-14.1 -13.5 0
-14.1 -13.2 0
-14.1 -12.9 0
-14.1 -12.6 0
-14.1 -12.3 0
-14.1 -12 0
-14.1 -11.7 0
-14.1 -11.4 0
-14.1 -11.1 0
-14.1 -10.8 0
-14.1 -10.5 0
-14.1 -10.2 0
-14.1 -9.9 0
-14.1 -9.6 0
-14.1 -9.3 0
-14.1 -9 0
-14.1 -8.7 0
-14.1 -8.4 0
-14.1 -8.1 0
-14.1 -7.8 0
-14.1 -7.5 0
-14.1 -7.2 0
-14.1 -6.9 0
-14.1 -6.6 0
-14.1 -6.3 0
-14.1 -6 0
-14.1 -5.7 0
-14.1 -5.4 0
-14.1 -5.1 0
-14.1 -4.8 0
-14.1 -4.5 0
-14.1 -4.2 0
-14.1 -3.9 0
-14.1 -3.6 0
-14.1 -3.3 0
-14.1 -3 0
-14.1 -2.7 0
-14.1 -2.4 0
-14.1 -2.1 0
-14.1 -1.8 0
-14.1 -1.5 0
-14.1 -1.2 0
-14.1 -0.9 0
-14.1 -0.6 0
-14.1 -0.3 0
-14.1 0 0
-14.1 0.3 0
-14.1 0.6 0
-14.1 0.9 0
-14.1 1.2 0
-14.1 1.5 0
-14.1 1.8 0
-14.1 2.1 0
-14.1 2.4 0
-14.1 2.7 0
-14.1 3 0
-14.1 3.3 0
-14.1 3.6 0
-14.1 3.9 0
-14.1 4.2 0
-14.1 4.5 0
-14.1 4.8 0
-14.1 5.1 0
-14.1 5.4 0
-14.1 5.7 0
-14.1 6 0
-14.1 6.3 0
-14.1 6.6 0
-14.1 6.9 0
-14.1 7.2 0
-14.1 7.5 0
-14.1 7.8 0
-14.1 8.1 0
-14.1 8.4 0
-14.1 8.7 0
-14.1 9 0
-14.1 9.3 0
-14.1 9.6 0
-14.1 9.9 0
-14.1 10.2 0
-14.1 10.5 0
-14.1 10.8 0
-14.1 11.1 0
-14.1 11.4 0
-14.1 11.7 0
-14.1 12 0
-14.1 12.3 0
-14.1 12.6 0
-14.1 12.9 0
-14.1 13.2 0
-14.1 13.5 0
-14.1 13.8 0
-14.1 14.1 0
-14.1 14.4 0
-14.1 14.7 0
-14.1 15 0
-13.8 -15 0
-13.8 -14.7 0
-13.8 -14.4 0
-13.8 -14.1 0
-13.8 -13.8 0
-13.8 -13.5 0
-13.8 -13.2 0
-13.8 -12.9 0
-13.8 -12.6 0
-13.8 -12.3 0
-13.8 -12 0
-13.8 -11.7 0
-13.8 -11.4 0
-13.8 -11.1 0
-13.8 -10.8 0
-13.8 -10.5 0
-13.8 -10.2 0
-13.8 -9.9 0
-13.8 -9.6 0
-13.8 -9.3 0
-13.8 -9 0
-13.8 -8.7 0
-13.8 -8.4 0
-13.8 -8.1 0
-13.8 -7.8 0
-13.8 -7.5 0
-13.8 -7.2 0
-13.8 -6.9 0
-13.8 -6.6 0
-13.8 -6.3 0
-13.8 -6 0
-13.8 -5.7 0
-13.8 -5.4 0
-13.8 -5.1 0
-13.8 -4.8 0
-13.8 -4.5 0
-13.8 -4.2 0
-13.8 -3.9 0
-13.8 -3.6 0
-13.8 -3.3 0
-13.8 -3 0
-13.8 -2.7 0
-13.8 -2.4 0
-13.8 -2.1 0
-13.8 -1.8 0
-13.8 -1.5 0
-13.8 -1.2 0
-13.8 -0.9 0
-13.8 -0.6 0
-13.8 -0.3 0
-13.8 0 0
-13.8 0.3 0
-13.8 0.6 0
-13.8 0.9 0
-13.8 1.2 0
-13.8 1.5 0
-13.8 1.8 0
-13.8 2.1 0
-13.8 2.4 0
-13.8 2.7 0
-13.8 3 0
-13.8 3.3 0
-13.8 3.6 0
-13.8 3.9 0
-13.8 4.2 0
-13.8 4.5 0
-13.8 4.8 0
-13.8 5.1 0
-13.8 5.4 0
-13.8 5.7 0
-13.8 6 0
-13.8 6.3 0
-13.8 6.6 0
-13.8 6.9 0
-13.8 7.2 0
-13.8 7.5 0
-13.8 7.8 0
-13.8 8.1 0
-13.8 8.4 0
-13.8 8.7 0
-13.8 9 0
-13.8 9.3 0
-13.8 9.6 0
-13.8 9.9 0
-13.8 10.2 0
-13.8 10.5 0
-13.8 10.8 0
-13.8 11.1 0
-13.8 11.4 0
-13.8 11.7 0
-13.8 12 0
-13.8 12.3 0
-13.8 12.6 0
-13.8 12.9 0
-13.8 13.2 0
-13.8 13.5 0
-13.8 13.8 0
-13.8 14.1 0
-13.8 14.4 0
-13.8 14.7 0
-13.8 15 0
-13.5 -15 0
-13.5 -14.7 0
-13.5 -14.4 0
-13.5 -14.1 0
-13.5 -13.8 0
-13.5 -13.5 0
-13.5 -13.2 0
-13.5 -12.9 0
-13.5 -12.6 0
-13.5 -12.3 0
-13.5 -12 0
-13.5 -11.7 0
-13.5 -11.4 0
-13.5 -11.1 0
-13.5 -10.8 0
-13.5 -10.5 0
-13.5 -10.2 0
-13.5 -9.9 0
-13.5 -9.6 0
-13.5 -9.3 0
-13.5 -9 0
-13.5 -8.7 0
-13.5 -8.4 0
-13.5 -8.1 0
-13.5 -7.8 0
-13.5 -7.5 0
-13.5 -7.2 0
-13.5 -6.9 0
-13.5 -6.6 0
-13.5 -6.3 0
-13.5 -6 0
-13.5 -5.7 0
-13.5 -5.4 0
-13.5 -5.1 0
-13.5 -4.8 0
-13.5 -4.5 0
-13.5 -4.2 0
-13.5 -3.9 0
-13.5 -3.6 0
-13.5 -3.3 0
-13.5 -3 0
-13.5 -2.7 0
-13.5 -2.4 0
-13.5 -2.1 0
-13.5 -1.8 0
-13.5 -1.5 0
-13.5 -1.2 0
-13.5 -0.9 0
-13.5 -0.6 0
-13.5 -0.3 0
-13.5 0 0
-13.5 0.3 0
-13.5 0.6 0
-13.5 0.9 0
-13.5 1.2 0
-13.5 1.5 0
-13.5 1.8 0
-13.5 2.1 0
-13.5 2.4 0
-13.5 2.7 0
-13.5 3 0
-13.5 3.3 0
-13.5 3.6 0
-13.5 3.9 0
-13.5 4.2 0
-13.5 4.5 0
-13.5 4.8 0
-13.5 5.1 0
-13.5 5.4 0
-13.5 5.7 0
-13.5 6 0
-13.5 6.3 0
-13.5 6.6 0
-13.5 6.9 0
-13.5 7.2 0
-13.5 7.5 0
-13.5 7.8 0
-13.5 8.1 0
-13.5 8.4 0
-13.5 8.7 0
-13.5 9 0
-13.5 9.3 0
-13.5 9.6 0
-13.5 9.9 0
-13.5 10.2 0
-13.5 10.5 0
-13.5 10.8 0
-13.5 11.1 0
-13.5 11.4 0
-13.5 11.7 0
-13.5 12 0
-13.5 12.3 0
-13.5 12.6 0
-13.5 12.9 0
-13.5 13.2 0
-13.5 13.5 0
-13.5 13.8 0
-13.5 14.1 0
-13.5 14.4 0
-13.5 14.7 0
-13.5 15 0
-13.2 -15 0
-13.2 -14.7 0
-13.2 -14.4 0
-13.2 -14.1 0
-13.2 -13.8 0
-13.2 -13.5 0
-13.2 -13.2 0
-13.2 -12.9 0
-13.2 -12.6 0
-13.2 -12.3 0
-13.2 -12 0
-13.2 -11.7 0
-13.2 -11.4 0
-13.2 -11.1 0
-13.2 -10.8 0
-13.2 -10.5 0
-13.2 -10.2 0
-13.2 -9.9 0
-13.2 -9.6 0
-13.2 -9.3 0
-13.2 -9 0
-13.2 -8.7 0
-13.2 -8.4 0
-13.2 -8.1 0
-13.2 -7.8 0
-13.2 -7.5 0
-13.2 -7.2 0
-13.2 -6.9 0
-13.2 -6.6 0
-13.2 -6.3 0
-13.2 -6 0
-13.2 -5.7 0
-13.2 -5.4 0
-13.2 -5.1 0
-13.2 -4.8 0
-13.2 -4.5 0
-13.2 -4.2 0
-13.2 -3.9 0
-13.2 -3.6 0
-13.2 -3.3 0
-13.2 -3 0
-13.2 -2.7 0
-13.2 -2.4 0
-13.2 -2.1 0
-13.2 -1.8 0
-13.2 -1.5 0
-13.2 -1.2 0
-13.2 -0.9 0
-13.2 -0.6 0
-13.2 -0.3 0
-13.2 0 0
-13.2 0.3 0
-13.2 0.6 0
-13.2 0.9 0
-13.2 1.2 0
-13.2 1.5 0
-13.2 1.8 0
-13.2 2.1 0
-13.2 2.4 0
-13.2 2.7 0
-13.2 3 0
-13.2 3.3 0
-13.2 3.6 0
-13.2 3.9 0
-13.2 4.2 0
-13.2 4.5 0
-13.2 4.8 0
-13.2 5.1 0
-13.2 5.4 0
-13.2 5.7 0
-13.2 6 0
-13.2 6.3 0
-13.2 6.6 0
-13.2 6.9 0
-13.2 7.2 0
-13.2 7.5 0
-13.2 7.8 0
-13.2 8.1 0
-13.2 8.4 0
-13.2 8.7 0
-13.2 9 0
-13.2 9.3 0
-13.2 9.6 0
-13.2 9.9 0
-13.2 10.2 0
-13.2 10.5 0
-13.2 10.8 0
-13.2 11.1 0
-13.2 11.4 0
-13.2 11.7 0
-13.2 12 0
-13.2 12.3 0
-13.2 12.6 0
-13.2 12.9 0
-13.2 13.2 0
-13.2 13.5 0
-13.2 13.8 0
-13.2 14.1 0
-13.2 14.4 0
-13.2 14.7 0
-13.2 15 0
-12.9 -15 0
-12.9 -14.7 0
-12.9 -14.4 0
-12.9 -14.1 0
-12.9 -13.8 0
-12.9 -13.5 0
-12.9 -13.2 0
-12.9 -12.9 0
-12.9 -12.6 0
-12.9 -12.3 0
-12.9 -12 0
-12.9 -11.7 0
-12.9 -11.4 0
-12.9 -11.1 0
-12.9 -10.8 0
-12.9 -10.5 0
-12.9 -10.2 0
-12.9 -9.9 0
-12.9 -9.6 0
-12.9 -9.3 0
-12.9 -9 0
-12.9 -8.7 0
-12.9 -8.4 0
-12.9 -8.1 0
-12.9 -7.8 0
-12.9 -7.5 0
-12.9 -7.2 0
-12.9 -6.9 0
-12.9 -6.6 0
-12.9 -6.3 0
-12.9 -6 0
-12.9 -5.7 0
-12.9 -5.4 0
-12.9 -5.1 0
-12.9 -4.8 0
-12.9 -4.5 0
-12.9 -4.2 0
-12.9 -3.9 0
-12.9 -3.6 0
-12.9 -3.3 0
-12.9 -3 0
-12.9 -2.7 0
-12.9 -2.4 0
-12.9 -2.1 0
-12.9 -1.8 0
-12.9 -1.5 0
-12.9 -1.2 0
-12.9 -0.9 0
-12.9 -0.6 0
-12.9 -0.3 0
-12.9 0 0
-12.9 0.3 0
-12.9 0.6 0
-12.9 0.9 0
-12.9 1.2 0
-12.9 1.5 0
-12.9 1.8 0
-12.9 2.1 0
-12.9 2.4 0
-12.9 2.7 0
-12.9 3 0
-12.9 3.3 0
-12.9 3.6 0
-12.9 3.9 0
-12.9 4.2 0
-12.9 4.5 0
-12.9 4.8 0
-12.9 5.1 0
-12.9 5.4 0
-12.9 5.7 0
-12.9 6 0
-12.9 6.3 0
-12.9 6.6 0
-12.9 6.9 0
-12.9 7.2 0
-12.9 7.5 0
-12.9 7.8 0
-12.9 8.1 0
-12.9 8.4 0
-12.9 8.7 0
-12.9 9 0
[...]
            <PointData>
                <DataArray type="Float64" Name="c1" format="ascii">
0.00126689 0.00126811 0.00127175 0.00127781 0.00128629 0.00129718 0.00131046 0.00132611 0.00134412 0.00136446 0.00138711 0.00141202 0.00143917 0.00146852 0.0015 0.00153358 0.00156919 0.00160676 0.00164621 0.00168747 0.00173045 0.00177503 0.00182112 0.00186859 0.00191732 0.00196716 0.00201796 0.00206956 0.00212179 0.00217447 0.00222739 0.00228036 0.00233316 0.00238557 0.00243737 0.00248831 0.00253816 0.00258667 0.00263359 0.00267868 0.0027217 0.00276241 0.00280057 0.00283598 0.00286841 0.00289767 0.00292359 0.002946 0.00296477 0.00297978 0.00299094 0.00299819 0.00300149 0.00300082 0.0029962 0.00298768 0.00297533 0.00295924 0.00293953 0.00291635 0.00288986 0.00286024 0.0028277 0.00279246 0.00275473 0.00271476 0.0026728 0.00262909 0.00258389 0.00253744 0.00249001 0.00244184 0.00239317 0.00234425 0.00229529 0.00224653 0.00219817 0.00215042 0.00210347 0.00205749 0.00201266 0.00196914 0.00192707 0.00188658 0.00184782 0.00181088 0.00177588 0.00174292 0.00171208 0.00168343 0.00165706 0.00163302 0.00161137 0.00159216 0.00157543 0.00156121 0.00154954 0.00154044 0.00153392 0.00153001 0.0015287 
0.00126785 0.00126907 0.00127272 0.0012788 0.0012873 0.00129821 0.00131152 0.00132721 0.00134527 0.00136566 0.00138836 0.00141334 0.00144056 0.00146998 0.00150156 0.00153523 0.00157093 0.00160861 0.00164818 0.00168957 0.00173268 0.0017774 0.00182364 0.00187128 0.00192017 0.00197018 0.00202117 0.00207296 0.00212539 0.00217827 0.00223141 0.0022846 0.00233763 0.00239027 0.00244229 0.00249347 0.00254354 0.00259228 0.00263943 0.00268474 0.00272798 0.00276889 0.00280726 0.00284285 0.00287545 0.00290487 0.00293092 0.00295346 0.00297233 0.00298742 0.00299864 0.00300592 0.00300923 0.00300855 0.00300391 0.00299533 0.0029829 0.00296671 0.00294688 0.00292356 0.00289692 0.00286713 0.00283441 0.00279897 0.00276104 0.00272086 0.00267867 0.00263474 0.00258931 0.00254263 0.00249497 0.00244657 0.00239768 0.00234853 0.00229936 0.00225039 0.00220183 0.00215388 0.00210674 0.00206058 0.00201558 0.00197189 0.00192966 0.00188904 0.00185014 0.00181307 0.00177796 0.00174488 0.00171394 0.00168521 0.00165875 0.00163464 0.00161292 0.00159365 0.00157687 0.00156262 0.00155091 0.00154178 0.00153525 0.00153132 0.00153001 
0.00127074 0.00127196 0.00127564 0.00128176 0.00129032 0.00130131 0.00131471 0.00133052 0.00134871 0.00136925 0.00139212 0.00141729 0.00144473 0.00147438 0.00150621 0.00154016 0.00157617 0.00161417 0.00165409 0.00169585 0.00173936 0.00178452 0.00183121 0.00187932 0.00192872 0.00197927 0.00203081 0.00208318 0.00213621 0.00218971 0.00224349 0.00229734 0.00235104 0.00240437 0.00245708 0.00250895 0.00255973 0.00260916 0.00265699 0.00270298 0.00274686 0.0027884 0.00282736 0.0028635 0.00289662 0.00292651 0.00295299 0.00297588 0.00299506 0.00301039 0.00302179 0.00302918 0.00303253 0.00303182 0.00302707 0.00301833 0.00300567 0.00298918 0.002969 0.00294527 0.00291816 0.00288786 0.00285459 0.00281856 0.00278 0.00273918 0.00269633 0.00265171 0.00260559 0.00255823 0.00250988 0.00246079 0.00241122 0.0023614 0.00231158 0.00226197 0.0022128 0.00216426 0.00211655 0.00206985 0.00202433 0.00198015 0.00193746 0.0018964 0.00185709 0.00181965 0.00178418 0.00175078 0.00171954 0.00169053 0.00166383 0.00163949 0.00161758 0.00159814 0.00158121 0.00156682 0.00155502 0.00154581 0.00153922 0.00153526 0.00153394 
0.00127553 0.00127677 0.00128049 0.00128668 0.00129534 0.00130646 0.00132003 0.00133602 0.00135443 0.00137523 0.00139839 0.00142388 0.00145166 0.00148171 0.00151396 0.00154838 0.00158489 0.00162344 0.00166395 0.00170633 0.00175051 0.00179638 0.00184383 0.00189274 0.00194299 0.00199442 0.00204689 0.00210023 0.00215427 0.00220882 0.00226367 0.00231863 0.00237346 0.00242793 0.00248182 0.00253486 0.00258681 0.0026374 0.00268638 0.00273349 0.00277847 0.00282106 0.00286102 0.00289811 0.00293209 0.00296278 0.00298996 0.00301347 0.00303315 0.00304889 0.00306059 0.00306816 0.00307157 0.00307082 0.0030659 0.00305688 0.00304382 0.00302684 0.00300605 0.00298163 0.00295373 0.00292258 0.00288837 0.00285135 0.00281175 0.00276984 0.00272588 0.00268012 0.00263284 0.00258431 0.0025348 0.00248455 0.00243384 0.00238291 0.00233199 0.00228132 0.00223112 0.00218159 0.00213293 0.00208532 0.00203893 0.00199394 0.00195047 0.00190868 0.00186869 0.00183061 0.00179455 0.0017606 0.00172886 0.0016994 0.00167228 0.00164757 0.00162533 0.0016056 0.00158842 0.00157383 0.00156185 0.00155251 0.00154583 0.00154181 0.00154047 
0.00128223 0.00128349 0.00128727 0.00129356 0.00130236 0.00131366 0.00132745 0.00134371 0.00136243 0.00138358 0.00140714 0.00143308 0.00146136 0.00149195 0.00152481 0.00155987 0.00159709 0.00163641 0.00167774 0.00172101 0.00176613 0.001813 0.00186152 0.00191156 0.00196299 0.00201568 0.00206946 0.00212417 0.00217963 0.00223565 0.00229203 0.00234855 0.00240498 0.00246108 0.00251661 0.00257131 0.00262492 0.00267717 0.00272778 0.00277649 0.00282302 0.0028671 0.00290848 0.0029469 0.00298213 0.00301394 0.00304213 0.00306651 0.00308693 0.00310324 0.00311536 0.00312319 0.0031267 0.00312587 0.00312072 0.00311129 0.00309768 0.00307998 0.00305834 0.00303293 0.00300392 0.00297154 0.00293601 0.00289758 0.0028565 0.00281305 0.00276749 0.00272012 0.0026712 0.00262102 0.00256985 0.00251798 0.00246565 0.00241314 0.00236067 0.0023085 0.00225684 0.00220591 0.00215591 0.00210701 0.00205941 0.00201325 0.0019687 0.00192588 0.00188493 0.00184595 0.00180906 0.00177435 0.0017419 0.0017118 0.0016841 0.00165887 0.00163616 0.00161603 0.0015985 0.00158361 0.0015714 0.00156187 0.00155505 0.00155096 0.00154959 
0.00129081 0.00129209 0.00129595 0.00130237 0.00131135 0.00132288 0.00133696 0.00135356 0.00137268 0.00139429 0.00141836 0.00144488 0.0014738 0.0015051 0.00153873 0.00157464 0.00161277 0.00165307 0.00169547 0.00173988 0.00178622 0.00183439 0.00188429 0.00193579 0.00198877 0.00204308 0.00209856 0.00215505 0.00221236 0.0022703 0.00232866 0.00238721 0.00244573 0.00250395 0.00256164 0.0026185 0.00267428 0.00272869 0.00278144 0.00283224 0.0028808 0.00292684 0.00297008 0.00301026 0.00304711 0.0030804 0.00310991 0.00313544 0.00315682 0.0031739 0.00318657 0.00319474 0.00319837 0.00319745 0.00319198 0.00318203 0.00316768 0.00314905 0.00312629 0.00309957 0.00306911 0.00303512 0.00299785 0.00295757 0.00291455 0.00286907 0.00282144 0.00277194 0.00272087 0.00266853 0.00261522 0.00256121 0.00250677 0.00245219 0.00239772 0.00234359 0.00229004 0.00223728 0.00218553 0.00213498 0.00208579 0.00203813 0.00199216 0.00194801 0.00190582 0.00186568 0.00182772 0.00179201 0.00175866 0.00172772 0.00169927 0.00167337 0.00165007 0.00162941 0.00161143 0.00159616 0.00158363 0.00157387 0.00156688 0.00156269 0.00156129 
0.00130124 0.00130256 0.00130651 0.00131309 0.00132229 0.00133411 0.00134854 0.00136556 0.00138516 0.00140733 0.00143204 0.00145926 0.00148898 0.00152114 0.00155572 0.00159266 0.00163192 0.00167343 0.00171714 0.00176295 0.0018108 0.00186057 0.00191217 0.00196548 0.00202036 0.00207667 0.00213426 0.00219295 0.00225255 0.00231287 0.00237369 0.00243477 0.00249588 0.00255674 0.00261711 0.00267667 0.00273516 0.00279226 0.00284768 0.00290109 0.0029522 0.00300069 0.00304627 0.00308864 0.00312753 0.00316268 0.00319385 0.00322082 0.0032434 0.00326144 0.00327481 0.00328342 0.00328721 0.00328616 0.00328031 0.00326969 0.00325442 0.00323462 0.00321044 0.00318209 0.00314979 0.00311379 0.00307434 0.00303174 0.00298628 0.00293827 0.00288804 0.00283588 0.00278214 0.00272711 0.0026711 0.00261443 0.00255738 0.00250023 0.00244325 0.00238669 0.00233079 0.00227578 0.00222187 0.00216925 0.0021181 0.0020686 0.00202088 0.00197509 0.00193136 0.0018898 0.00185051 0.00181358 0.0017791 0.00174715 0.00171778 0.00169105 0.00166701 0.00164571 0.00162717 0.00161144 0.00159854 0.00158848 0.00158129 0.00157697 0.00157553 
0.00131351 0.00131486 0.00131892 0.00132569 0.00133515 0.00134731 0.00136216 0.00137967 0.00139986 0.00142269 0.00144814 0.00147621 0.00150685 0.00154004 0.00157575 0.00161392 0.00165452 0.00169748 0.00174274 0.00179023 0.00183986 0.00189155 0.00194518 0.00200065 0.00205781 0.00211653 0.00217664 0.00223797 0.00230032 0.0023635 0.00242727 0.00249141 0.00255563 0.00261969 0.00268329 0.00274612 0.00280789 0.00286825 0.0029269 0.00298349 0.00303769 0.00308916 0.00313758 0.00318263 0.00322401 0.00326143 0.00329462 0.00332335 0.00334741 0.00336662 0.00338085 0.00338998 0.00339396 0.00339278 0.00338644 0.00337502 0.00335862 0.00333738 0.00331148 0.00328114 0.0032466 0.00320813 0.00316603 0.0031206 0.00307218 0.00302109 0.0029677 0.00291232 0.00285532 0.00279703 0.00273778 0.00267789 0.00261767 0.00255742 0.00249742 0.00243794 0.00237922 0.0023215 0.00226499 0.0022099 0.00215641 0.00210468 0.00205487 0.00200712 0.00196156 0.00191829 0.00187742 0.00183904 0.00180323 0.00177006 0.00173959 0.00171188 0.00168697 0.00166491 0.00164572 0.00162943 0.00161608 0.00160567 0.00159823 0.00159376 0.00159227 
0.00132757 0.00132897 0.00133316 0.00134014 0.0013499 0.00136245 0.00137778 0.00139587 0.00141672 0.00144032 0.00146665 0.00149568 0.00152741 0.00156179 0.0015988 0.00163841 0.00168055 0.0017252 0.00177227 0.00182171 0.00187343 0.00192735 0.00198336 0.00204134 0.00210118 0.00216271 0.00222578 0.0022902 0.0023558 0.00242234 0.0024896 0.00255732 0.00262524 0.00269307 0.00276049 0.0028272 0.00289285 0.0029571 0.00301959 0.00307996 0.00313784 0.00319287 0.00324468 0.00329293 0.00333728 0.00337741 0.00341303 0.00344387 0.0034697 0.00349032 0.00350557 0.00351534 0.00351956 0.0035182 0.00351129 0.0034989 0.00348115 0.00345819 0.00343023 0.0033975 0.00336028 0.00331886 0.00327358 0.00322478 0.00317282 0.00311807 0.0030609 0.0030017 0.00294083 0.00287866 0.00281556 0.00275186 0.0026879 0.00262398 0.00256042 0.00249749 0.00243545 0.00237454 0.00231498 0.00225699 0.00220074 0.00214642 0.00209416 0.00204412 0.00199642 0.00195116 0.00190846 0.00186838 0.00183102 0.00179644 0.00176469 0.00173584 0.00170991 0.00168696 0.00166701 0.00165009 0.00163621 0.0016254 0.00161768 0.00161303 0.00161149 
0.00134339 0.00134483 0.00134917 0.00135639 0.0013665 0.0013795 0.00139537 0.00141411 0.00143573 0.0014602 0.00148751 0.00151765 0.00155061 0.00158635 0.00162486 0.00166609 0.00171001 0.00175657 0.00180572 0.00185739 0.00191151 0.00196799 0.00202673 0.00208761 0.00215052 0.00221529 0.00228178 0.00234979 0.00241913 0.00248957 0.00256087 0.00263277 0.00270498 0.0027772 0.00284909 0.00292031 0.00299051 0.0030593 0.0031263 0.0031911 0.00325331 0.00331252 0.00336833 0.00342036 0.00346822 0.00351156 0.00355005 0.00358339 0.00361131 0.0036336 0.00365007 0.0036606 0.00366509 0.00366354 0.00365595 0.00364242 0.00362306 0.00359807 0.00356766 0.00353211 0.00349172 0.00344682 0.00339779 0.00334501 0.00328888 0.00322981 0.00316822 0.00310452 0.00303912 0.00297242 0.00290481 0.00283666 0.00276833 0.00270015 0.00263245 0.00256551 0.00249961 0.00243501 0.00237193 0.00231059 0.00225117 0.00219385 0.00213878 0.0020861 0.00203594 0.00198841 0.00194359 0.00190158 0.00186244 0.00182624 0.00179304 0.00176288 0.0017358 0.00171184 0.00169101 0.00167336 0.00165889 0.00164763 0.00163957 0.00163473 0.00163312 
0.00136091 0.00136241 0.00136691 0.00137441 0.0013849 0.00139839 0.00141488 0.00143436 0.00145682 0.00148227 0.00151069 0.00154208 0.00157641 0.00161368 0.00165387 0.00169693 0.00174285 0.00179158 0.00184308 0.00189727 0.0019541 0.00201348 0.00207531 0.00213949 0.00220589 0.00227436 0.00234474 0.00241685 0.00249047 0.00256538 0.00264132 0.00271801 0.00279516 0.00287243 0.00294948 0.00302593 0.00310139 0.00317545 0.00324767 0.00331763 0.00338488 0.00344896 0.00350944 0.00356587 0.00361783 0.00366493 0.00370678 0.00374305 0.00377344 0.00379769 0.00381559 0.00382701 0.00383184 0.00383005 0.00382167 0.00380679 0.00378556 0.00375818 0.00372491 0.00368605 0.00364195 0.00359298 0.00353957 0.00348214 0.00342115 0.00335705 0.0032903 0.00322137 0.00315071 0.00307876 0.00300593 0.00293265 0.00285928 0.00278619 0.00271373 0.0026422 0.00257188 0.00250305 0.00243594 0.00237077 0.00230773 0.00224701 0.00218874 0.00213307 0.00208013 0.00203001 0.0019828 0.0019386 0.00189745 0.00185944 0.00182459 0.00179296 0.00176458 0.00173948 0.00171768 0.0016992 0.00168407 0.00167229 0.00166386 0.00165881 0.00165712 
0.0013801 0.00138166 0.00138634 0.00139413 0.00140505 0.0014191 0.00143626 0.00145655 0.00147996 0.00150649 0.00153614 0.0015689 0.00160478 0.00164375 0.0016858 0.00173091 0.00177906 0.00183021 0.00188432 0.00194134 0.0020012 0.00206384 0.00212915 0.00219704 0.00226737 0.00234001 0.00241479 0.00249153 0.00257 0.00264998 0.00273119 0.00281335 0.00289613 0.00297918 0.00306213 0.00314457 0.00322607 0.00330618 0.00338443 0.00346034 0.0035334 0.00360313 0.003669 0.00373055 0.00378728 0.00383874 0.00388451 0.0039242 0.00395746 0.003984 0.00400359 0.00401604 0.00402126 0.00401921 0.00400991 0.00399347 0.00397006 0.0039399 0.00390329 0.00386057 0.00381215 0.00375845 0.00369995 0.00363713 0.0035705 0.00350058 0.00342788 0.00335293 0.00327621 0.00319821 0.0031194 0.00304023 0.0029611 0.00288241 0.00280451 0.00272775 0.00265242 0.00257879 0.00250712 0.00243762 0.0023705 0.00230593 0.00224407 0.00218504 0.00212897 0.00207595 0.00202607 0.00197941 0.00193603 0.00189597 0.00185929 0.00182602 0.00179619 0.00176982 0.00174694 0.00172755 0.00171168 0.00169932 0.00169049 0.00168519 0.00168342 
0.00140088 0.00140251 0.00140738 0.00141551 0.0014269 0.00144154 0.00145945 0.00148063 0.00150507 0.0015328 0.0015638 0.00159809 0.00163565 0.00167649 0.0017206 0.00176798 0.00181859 0.00187242 0.00192943 0.00198958 0.00205282 0.00211907 0.00218826 0.00226028 0.00233502 0.00241233 0.00249204 0.00257398 0.00265792 0.00274361 0.00283077 0.00291911 0.00300827 0.00309789 0.00318754 0.00327681 0.0033652 0.00345224 0.00353739 0.00362012 0.00369987 0.00377608 0.00384819 0.00391564 0.00397788 0.0040344 0.00408471 0.00412836 0.00416496 0.00419417 0.00421571 0.00422939 0.00423507 0.00423271 0.00422235 0.0042041 0.00417815 0.00414476 0.00410428 0.0040571 0.00400368 0.0039445 0.00388012 0.00381107 0.00373795 0.00366133 0.00358179 0.00349991 0.00341626 0.00333135 0.00324572 0.00315984 0.00307416 0.00298911 0.00290507 0.00282239 0.0027414 0.00266237 0.00258557 0.00251122 0.00243953 0.00237066 0.00230478 0.002242 0.00218244 0.0021262 0.00207336 0.00202398 0.00197811 0.0019358 0.0018971 0.00186201 0.00183058 0.00180282 0.00177873 0.00175834 0.00174165 0.00172866 0.00171938 0.00171381 0.00171196 
0.0014232 0.0014249 0.00142999 0.00143848 0.00145037 0.00146567 0.00148439 0.00150654 0.00153211 0.00156114 0.00159361 0.00162956 0.00166897 0.00171186 0.00175823 0.00180807 0.00186139 0.00191816 0.00197837 0.00204197 0.00210893 0.00217918 0.00225266 0.00232927 0.00240889 0.00249139 0.00257661 0.00266435 0.0027544 0.00284649 0.00294035 0.00303564 0.00313199 0.00322902 0.00332627 0.00342327 0.0035195 0.00361442 0.00370744 0.00379797 0.00388537 0.00396903 0.00404829 0.00412253 0.00419112 0.00425348 0.00430903 0.00435727 0.00439774 0.00443004 0.00445386 0.00446895 0.00447518 0.00447248 0.00446089 0.00444055 0.00441166 0.00437455 0.00432959 0.00427725 0.00421805 0.00415256 0.0040814 0.00400519 0.00392461 0.0038403 0.00375294 0.00366316 0.00357159 0.00347883 0.00338544 0.00329196 0.00319887 0.00310664 0.00301568 0.00292635 0.00283901 0.00275394 0.00267141 0.00259165 0.00251487 0.00244123 0.00237088 0.00230395 0.00224054 0.00218074 0.00212462 0.00207224 0.00202364 0.00197886 0.00193793 0.00190086 0.00186767 0.00183838 0.00181298 0.00179149 0.00177391 0.00176023 0.00175046 0.0017446 0.00174264 
0.00144699 0.00144876 0.00145409 0.00146296 0.00147541 0.00149142 0.00151101 0.0015342 0.001561 0.00159143 0.00162551 0.00166325 0.00170466 0.00174978 0.0017986 0.00185115 0.00190741 0.0019674 0.00203109 0.00209848 0.00216952 0.00224417 0.00232237 0.00240403 0.00248905 0.00257729 0.00266861 0.0027628 0.00285965 0.00295889 0.00306022 0.00316329 0.00326773 0.00337309 0.0034789 0.00358464 0.00368975 0.00379361 0.00389558 0.00399498 0.00409113 0.00418329 0.00427075 0.00435278 0.00442868 0.00449775 0.00455935 0.00461289 0.00465783 0.00469371 0.00472017 0.00473692 0.00474378 0.0047407 0.0047277 0.00470494 0.00467267 0.00463125 0.00458113 0.00452285 0.00445699 0.00438424 0.00430528 0.00422086 0.00413173 0.00403864 0.00394234 0.00384355 0.00374299 0.00364131 0.00353915 0.00343709 0.00333566 0.00323536 0.00313664 0.00303988 0.00294544 0.00285364 0.00276474 0.00267898 0.00259655 0.00251763 0.00244237 0.00237086 0.00230322 0.00223951 0.00217981 0.00212414 0.00207256 0.00202508 0.00198171 0.00194248 0.00190739 0.00187643 0.00184961 0.00182692 0.00180836 0.00179394 0.00178363 0.00177745 0.00177539 
0.00147216 0.00147402 0.00147959 0.00148889 0.00150192 0.00151869 0.00153923 0.00156354 0.00159166 0.0016236 0.0016594 0.00169908 0.00174266 0.00179018 0.00184166 0.00189712 0.00195659 0.00202006 0.00208755 0.00215905 0.00223455 0.00231401 0.00239737 0.00248458 0.00257553 0.00267011 0.00276815 0.00286948 0.00297387 0.00308104 0.00319069 0.00330246 0.00341593 0.00353064 0.00364608 0.00376167 0.00387679 0.00399076 0.00410288 0.00421238 0.00431848 0.00442035 0.00451719 0.00460814 0.00469241 0.00476921 0.00483777 0.00489742 0.00494752 0.00498755 0.00501707 0.00503574 0.00504335 0.00503983 0.00502521 0.00499967 0.00496351 0.00491713 0.00486106 0.00479592 0.00472242 0.00464131 0.00455341 0.00445958 0.00436068 0.00425756 0.00415109 0.00404207 0.00393132 0.00381956 0.0037075 0.00359578 0.00348498 0.00337565 0.00326825 0.0031632 0.00306088 0.00296161 0.00286565 0.00277326 0.00268462 0.0025999 0.00251923 0.00244271 0.00237044 0.00230247 0.00223885 0.00217961 0.00212478 0.00207436 0.00202836 0.00198679 0.00194962 0.00191687 0.0018885 0.00186453 0.00184492 0.00182969 0.00181881 0.00181229 0.00181011 
0.00149865 0.00150059 0.00150643 0.00151617 0.00152983 0.00154742 0.00156895 0.00159447 0.001624 0.00165756 0.0016952 0.00173696 0.00178287 0.00183297 0.00188731 0.00194592 0.00200883 0.00207608 0.00214768 0.00222365 0.00230398 0.00238867 0.00247767 0.00257093 0.00266838 0.0027699 0.00287534 0.00298454 0.00309725 0.00321321 0.0033321 0.00345354 0.00357709 0.00370225 0.00382847 0.00395512 0.00408152 0.00420693 0.00433053 0.00445148 0.00456889 0.00468184 0.00478937 0.00489054 0.00498442 0.00507007 0.00514665 0.00521334 0.0052694 0.00531422 0.00534728 0.00536818 0.00537668 0.00537267 0.00535619 0.00532745 0.0052868 0.0052347 0.00517179 0.00509877 0.00501646 0.00492577 0.00482763 0.00472303 0.00461297 0.00449843 0.00438038 0.00425977 0.00413748 0.00401434 0.00389114 0.00376858 0.0036473 0.00352787 0.00341081 0.00329656 0.0031855 0.00307797 0.00297424 0.00287455 0.00277909 0.00268801 0.00260144 0.00251945 0.00244213 0.00236953 0.00230166 0.00223855 0.0021802 0.00212662 0.00207778 0.00203367 0.00199428 0.00195959 0.00192957 0.00190421 0.00188348 0.00186738 0.00185589 0.00184899 0.0018467 
0.00152635 0.00152839 0.00153451 0.00154472 0.00155905 0.0015775 0.0016001 0.0016269 0.00165792 0.00169321 0.00173282 0.0017768 0.00182519 0.00187806 0.00193546 0.00199744 0.00206406 0.00213536 0.00221139 0.00229218 0.00237775 0.0024681 0.00256322 0.00266308 0.0027676 0.00287671 0.00299026 0.00310809 0.00322997 0.00335563 0.00348474 0.00361691 0.00375167 0.0038885 0.00402678 0.00416584 0.00430493 0.00444321 0.0045798 0.00471372 0.00484399 0.00496953 0.00508927 0.00520212 0.005307 0.00540283 0.00548862 0.00556341 0.00562636 0.00567672 0.00571387 0.00573737 0.0057469 0.00574234 0.00572374 0.00569132 0.00564549 0.00558682 0.00551601 0.00543392 0.00534151 0.00523982 0.00512995 0.00501304 0.00489024 0.00476269 0.00463151 0.00449776 0.00436244 0.00422649 0.00409078 0.00395607 0.00382307 0.00369241 0.00356462 0.00344017 0.00331947 0.00320284 0.00309057 0.00298288 0.00287996 0.00278194 0.00268894 0.00260102 0.00251823 0.0024406 0.00236814 0.00230086 0.00223873 0.00218173 0.00212984 0.00208302 0.00204125 0.00200448 0.00197269 0.00194584 0.00192392 0.00190689 0.00189474 0.00188746 0.00188503 