<?xml version="1.0"?>
<VTKFile type="StructuredGrid" version="0.1">
    <StructuredGrid WholeExtent="0 100 0 100 0 0">
        <Piece Extent="0 100 0 100 0 0">
            <Points>
                <DataArray type="Float64" NumberOfComponents="3" format="ascii">
-15 -15 0
-15 -14.7 0
-15 -14.4 0
-15 -14.1 0
-15 -13.8 0
-15 -13.5 0
-15 -13.2 0
-15 -12.9 0
-15 -12.6 0
-15 -12.3 0
-15 -12 0
-15 -11.7 0
-15 -11.4 0
-15 -11.1 0
-15 -10.8 0
-15 -10.5 0
-15 -10.2 0
-15 -9.9 0
-15 -9.6 0
-15 -9.3 0
-15 -9 0
-15 -8.7 0
-15 -8.4 0
-15 -8.1 0
-15 -7.8 0
-15 -7.5 0
-15 -7.2 0
-15 -6.9 0
-15 -6.6 0
-15 -6.3 0
-15 -6 0
-15 -5.7 0
-15 -5.4 0
-15 -5.1 0
-15 -4.8 0
-15 -4.5 0
-15 -4.2 0
-15 -3.9 0
-15 -3.6 0
-15 -3.3 0
-15 -3 0
-15 -2.7 0
-15 -2.4 0
-15 -2.1 0
-15 -1.8 0
-15 -1.5 0
-15 -1.2 0
-15 -0.9 0
-15 -0.6 0
-15 -0.3 0
-15 0 0
-15 0.3 0
-15 0.6 0
-15 0.9 0
-15 1.2 0
-15 1.5 0
-15 1.8 0
-15 2.1 0
-15 2.4 0
-15 2.7 0
-15 3 0
-15 3.3 0
-15 3.6 0
-15 3.9 0
-15 4.2 0
-15 4.5 0
-15 4.8 0
-15 5.1 0
-15 5.4 0
-15 5.7 0
-15 6 0
-15 6.3 0
-15 6.6 0
-15 6.9 0
-15 7.2 0
-15 7.5 0
-15 7.8 0
-15 8.1 0
-15 8.4 0
-15 8.7 0
-15 9 0
-15 9.3 0
-15 9.6 0
-15 9.9 0
-15 10.2 0
-15 10.5 0
-15 10.8 0
-15 11.1 0
-15 11.4 0
-15 11.7 0
-15 12 0
-15 12.3 0
-15 12.6 0
-15 12.9 0
-15 13.2 0
-15 13.5 0
-15 13.8 0
-15 14.1 0
-15 14.4 0
-15 14.7 0
-15 15 0
-14.7 -15 0
-14.7 -14.7 0
-14.7 -14.4 0
-14.7 -14.1 0
-14.7 -13.8 0
-14.7 -13.5 0
-14.7 -13.2 0
-14.7 -12.9 0
-14.7 -12.6 0
-14.7 -12.3 0
-14.7 -12 0
-14.7 -11.7 0
-14.7 -11.4 0
-14.7 -11.1 0
-14.7 -10.8 0
-14.7 -10.5 0
-14.7 -10.2 0
-14.7 -9.9 0
-14.7 -9.6 0
-14.7 -9.3 0
-14.7 -9 0
-14.7 -8.7 0
-14.7 -8.4 0
-14.7 -8.1 0
-14.7 -7.8 0
-14.7 -7.5 0
-14.7 -7.2 0
-14.7 -6.9 0
-14.7 -6.6 0
-14.7 -6.3 0
-14.7 -6 0
-14.7 -5.7 0
-14.7 -5.4 0
-14.7 -5.1 0
-14.7 -4.8 0
-14.7 -4.5 0
-14.7 -4.2 0
-14.7 -3.9 0
-14.7 -3.6 0
-14.7 -3.3 0
-14.7 -3 0
-14.7 -2.7 0
-14.7 -2.4 0
-14.7 -2.1 0
-14.7 -1.8 0
-14.7 -1.5 0
-14.7 -1.2 0
-14.7 -0.9 0
-14.7 -0.6 0
-14.7 -0.3 0
-14.7 0 0
-14.7 0.3 0
-14.7 0.6 0
-14.7 0.9 0
-14.7 1.2 0
-14.7 1.5 0
-14.7 1.8 0
-14.7 2.1 0
-14.7 2.4 0
-14.7 2.7 0
-14.7 3 0
-14.7 3.3 0
-14.7 3.6 0
-14.7 3.9 0
-14.7 4.2 0
-14.7 4.5 0
-14.7 4.8 0
-14.7 5.1 0
-14.7 5.4 0
-14.7 5.7 0
-14.7 6 0
-14.7 6.3 0
-14.7 6.6 0
-14.7 6.9 0
-14.7 7.2 0
-14.7 7.5 0
-14.7 7.8 0
-14.7 8.1 0
-14.7 8.4 0
-14.7 8.7 0
-14.7 9 0
-14.7 9.3 0
-14.7 9.6 0
-14.7 9.9 0
-14.7 10.2 0
-14.7 10.5 0
-14.7 10.8 0
-14.7 11.1 0
-14.7 11.4 0
-14.7 11.7 0
-14.7 12 0
-14.7 12.3 0
-14.7 12.6 0
-14.7 12.9 0
-14.7 13.2 0
-14.7 13.5 0
-14.7 13.8 0
-14.7 14.1 0
-14.7 14.4 0
-14.7 14.7 0
-14.7 15 0
-14.4 -15 0
-14.4 -14.7 0
-14.4 -14.4 0
-14.4 -14.1 0
-14.4 -13.8 0
-14.4 -13.5 0
-14.4 -13.2 0
-14.4 -12.9 0
-14.4 -12.6 0
-14.4 -12.3 0
-14.4 -12 0
-14.4 -11.7 0
-14.4 -11.4 0
-14.4 -11.1 0
-14.4 -10.8 0
-14.4 -10.5 0
-14.4 -10.2 0
-14.4 -9.9 0
-14.4 -9.6 0
-14.4 -9.3 0
-14.4 -9 0
-14.4 -8.7 0
-14.4 -8.4 0
-14.4 -8.1 0
-14.4 -7.8 0
-14.4 -7.5 0
-14.4 -7.2 0
-14.4 -6.9 0
-14.4 -6.6 0
-14.4 -6.3 0
-14.4 -6 0
-14.4 -5.7 0
-14.4 -5.4 0
-14.4 -5.1 0
-14.4 -4.8 0
-14.4 -4.5 0
-14.4 -4.2 0
-14.4 -3.9 0
-14.4 -3.6 0
-14.4 -3.3 0
-14.4 -3 0
-14.4 -2.7 0
-14.4 -2.4 0
-14.4 -2.1 0
-14.4 -1.8 0
-14.4 -1.5 0
-14.4 -1.2 0
-14.4 -0.9 0
-14.4 -0.6 0
-14.4 -0.3 0
-14.4 0 0
-14.4 0.3 0
-14.4 0.6 0
-14.4 0.9 0
-14.4 1.2 0
-14.4 1.5 0
-14.4 1.8 0
-14.4 2.1 0
-14.4 2.4 0
-14.4 2.7 0
-14.4 3 0
-14.4 3.3 0
-14.4 3.6 0
-14.4 3.9 0
-14.4 4.2 0
-14.4 4.5 0
-14.4 4.8 0
-14.4 5.1 0
-14.4 5.4 0
-14.4 5.7 0
-14.4 6 0
-14.4 6.3 0
-14.4 6.6 0
-14.4 6.9 0
-14.4 7.2 0
-14.4 7.5 0
-14.4 7.8 0
-14.4 8.1 0
-14.4 8.4 0
-14.4 8.7 0
-14.4 9 0
-14.4 9.3 0
-14.4 9.6 0
-14.4 9.9 0
-14.4 10.2 0
-14.4 10.5 0
-14.4 10.8 0
-14.4 11.1 0
-14.4 11.4 0
-14.4 11.7 0
-14.4 12 0
-14.4 12.3 0
-14.4 12.6 0
-14.4 12.9 0
-14.4 13.2 0
-14.4 13.5 0
-14.4 13.8 0
-14.4 14.1 0
-14.4 14.4 0
-14.4 14.7 0
-14.4 15 0
-14.1 -15 0
-14.1 -14.7 0
-14.1 -14.4 0
-14.1 -14.1 0
-14.1 -13.8 0
-14.1 -13.5 0
-14.1 -13.2 0
-14.1 -12.9 0
-14.1 -12.6 0
-14.1 -12.3 0
-14.1 -12 0
-14.1 -11.7 0
-14.1 -11.4 0
-14.1 -11.1 0
-14.1 -10.8 0
-14.1 -10.5 0
-14.1 -10.2 0
-14.1 -9.9 0
-14.1 -9.6 0
-14.1 -9.3 0
-14.1 -9 0
-14.1 -8.7 0
-14.1 -8.4 0
-14.1 -8.1 0
-14.1 -7.8 0
-14.1 -7.5 0
-14.1 -7.2 0
-14.1 -6.9 0
-14.1 -6.6 0
-14.1 -6.3 0
-14.1 -6 0
-14.1 -5.7 0
-14.1 -5.4 0
-14.1 -5.1 0
-14.1 -4.8 0
-14.1 -4.5 0
-14.1 -4.2 0
-14.1 -3.9 0
-14.1 -3.6 0
-14.1 -3.3 0
-14.1 -3 0
-14.1 -2.7 0
-14.1 -2.4 0
-14.1 -2.1 0
-14.1 -1.8 0
-14.1 -1.5 0
-14.1 -1.2 0
-14.1 -0.9 0
-14.1 -0.6 0
-14.1 -0.3 0
-14.1 0 0
-14.1 0.3 0
-14.1 0.6 0
-14.1 0.9 0
-14.1 1.2 0
-14.1 1.5 0
-14.1 1.8 0
-14.1 2.1 0
-14.1 2.4 0
-14.1 2.7 0
-14.1 3 0
-14.1 3.3 0
-14.1 3.6 0
-14.1 3.9 0
-14.1 4.2 0
-14.1 4.5 0
-14.1 4.8 0
-14.1 5.1 0
-14.1 5.4 0
-14.1 5.7 0
-14.1 6 0
-14.1 6.3 0
-14.1 6.6 0
-14.1 6.9 0
-14.1 7.2 0
-14.1 7.5 0
-14.1 7.8 0
-14.1 8.1 0
-14.1 8.4 0
-14.1 8.7 0
-14.1 9 0
-14.1 9.3 0
-14.1 9.6 0
-14.1 9.9 0
-14.1 10.2 0
-14.1 10.5 0
-14.1 10.8 0
-14.1 11.1 0
-14.1 11.4 0
-14.1 11.7 0
-14.1 12 0
-14.1 12.3 0
-14.1 12.6 0
-14.1 12.9 0
-14.1 13.2 0
-14.1 13.5 0
-14.1 13.8 0
-14.1 14.1 0
-14.1 14.4 0
-14.1 14.7 0
-14.1 15 0
-13.8 -15 0
-13.8 -14.7 0
-13.8 -14.4 0
-13.8 -14.1 0
-13.8 -13.8 0
-13.8 -13.5 0
-13.8 -13.2 0
-13.8 -12.9 0
-13.8 -12.6 0
-13.8 -12.3 0
-13.8 -12 0
-13.8 -11.7 0
-13.8 -11.4 0
-13.8 -11.1 0
-13.8 -10.8 0
-13.8 -10.5 0
-13.8 -10.2 0
-13.8 -9.9 0
-13.8 -9.6 0
-13.8 -9.3 0
-13.8 -9 0
-13.8 -8.7 0
-13.8 -8.4 0
-13.8 -8.1 0
-13.8 -7.8 0
-13.8 -7.5 0
-13.8 -7.2 0
-13.8 -6.9 0
-13.8 -6.6 0
-13.8 -6.3 0
-13.8 -6 0
-13.8 -5.7 0
-13.8 -5.4 0
-13.8 -5.1 0
-13.8 -4.8 0
-13.8 -4.5 0
-13.8 -4.2 0
-13.8 -3.9 0
-13.8 -3.6 0
-13.8 -3.3 0
-13.8 -3 0
-13.8 -2.7 0
-13.8 -2.4 0
-13.8 -2.1 0
-13.8 -1.8 0
-13.8 -1.5 0
-13.8 -1.2 0
-13.8 -0.9 0
-13.8 -0.6 0
-13.8 -0.3 0
-13.8 0 0
-13.8 0.3 0
-13.8 0.6 0
-13.8 0.9 0
-13.8 1.2 0
-13.8 1.5 0
-13.8 1.8 0
-13.8 2.1 0
-13.8 2.4 0
-13.8 2.7 0
-13.8 3 0
-13.8 3.3 0
-13.8 3.6 0
-13.8 3.9 0
-13.8 4.2 0
-13.8 4.5 0
-13.8 4.8 0
-13.8 5.1 0
-13.8 5.4 0
-13.8 5.7 0
-13.8 6 0
-13.8 6.3 0
-13.8 6.6 0
-13.8 6.9 0
-13.8 7.2 0
-13.8 7.5 0
-13.8 7.8 0
-13.8 8.1 0
-13.8 8.4 0
-13.8 8.7 0
-13.8 9 0
-13.8 9.3 0
-13.8 9.6 0
-13.8 9.9 0
-13.8 10.2 0
-13.8 10.5 0
-13.8 10.8 0
-13.8 11.1 0
-13.8 11.4 0
-13.8 11.7 0
-13.8 12 0
-13.8 12.3 0
-13.8 12.6 0
-13.8 12.9 0
-13.8 13.2 0
-13.8 13.5 0
-13.8 13.8 0
-13.8 14.1 0
-13.8 14.4 0
-13.8 14.7 0
-13.8 15 0
-13.5 -15 0
-13.5 -14.7 0
-13.5 -14.4 0
-13.5 -14.1 0
-13.5 -13.8 0
-13.5 -13.5 0
-13.5 -13.2 0
-13.5 -12.9 0
-13.5 -12.6 0
-13.5 -12.3 0
-13.5 -12 0
-13.5 -11.7 0
-13.5 -11.4 0
-13.5 -11.1 0
-13.5 -10.8 0
-13.5 -10.5 0
-13.5 -10.2 0
-13.5 -9.9 0
-13.5 -9.6 0
-13.5 -9.3 0
-13.5 -9 0
-13.5 -8.7 0
-13.5 -8.4 0
-13.5 -8.1 0
-13.5 -7.8 0
-13.5 -7.5 0
-13.5 -7.2 0
-13.5 -6.9 0
-13.5 -6.6 0
-13.5 -6.3 0
-13.5 -6 0
-13.5 -5.7 0
-13.5 -5.4 0
-13.5 -5.1 0
-13.5 -4.8 0
-13.5 -4.5 0
-13.5 -4.2 0
-13.5 -3.9 0
-13.5 -3.6 0
-13.5 -3.3 0
-13.5 -3 0
-13.5 -2.7 0
-13.5 -2.4 0
-13.5 -2.1 0
-13.5 -1.8 0
-13.5 -1.5 0
-13.5 -1.2 0
-13.5 -0.9 0
-13.5 -0.6 0
-13.5 -0.3 0
-13.5 0 0
-13.5 0.3 0
-13.5 0.6 0
-13.5 0.9 0
-13.5 1.2 0
-13.5 1.5 0
-13.5 1.8 0
-13.5 2.1 0
-13.5 2.4 0
-13.5 2.7 0
-13.5 3 0
-13.5 3.3 0
-13.5 3.6 0
-13.5 3.9 0
-13.5 4.2 0
-13.5 4.5 0
-13.5 4.8 0
-13.5 5.1 0
-13.5 5.4 0
-13.5 5.7 0
-13.5 6 0
-13.5 6.3 0
-13.5 6.6 0
-13.5 6.9 0
-13.5 7.2 0
-13.5 7.5 0
-13.5 7.8 0
-13.5 8.1 0
-13.5 8.4 0
-13.5 8.7 0
-13.5 9 0
-13.5 9.3 0
-13.5 9.6 0
-13.5 9.9 0
-13.5 10.2 0
-13.5 10.5 0
-13.5 10.8 0
-13.5 11.1 0
-13.5 11.4 0
-13.5 11.7 0
-13.5 12 0
-13.5 12.3 0
-13.5 12.6 0
-13.5 12.9 0
-13.5 13.2 0
-13.5 13.5 0
-13.5 13.8 0
-13.5 14.1 0
-13.5 14.4 0
-13.5 14.7 0
-13.5 15 0
-13.2 -15 0
-13.2 -14.7 0
-13.2 -14.4 0
-13.2 -14.1 0
-13.2 -13.8 0
-13.2 -13.5 0
-13.2 -13.2 0
-13.2 -12.9 0
-13.2 -12.6 0
-13.2 -12.3 0
-13.2 -12 0
-13.2 -11.7 0
-13.2 -11.4 0
-13.2 -11.1 0
-13.2 -10.8 0
-13.2 -10.5 0
-13.2 -10.2 0
-13.2 -9.9 0
-13.2 -9.6 0
-13.2 -9.3 0
-13.2 -9 0
-13.2 -8.7 0
-13.2 -8.4 0
-13.2 -8.1 0
-13.2 -7.8 0
-13.2 -7.5 0
-13.2 -7.2 0
-13.2 -6.9 0
-13.2 -6.6 0
-13.2 -6.3 0
-13.2 -6 0
-13.2 -5.7 0
-13.2 -5.4 0
-13.2 -5.1 0
-13.2 -4.8 0
-13.2 -4.5 0
-13.2 -4.2 0
-13.2 -3.9 0
-13.2 -3.6 0
-13.2 -3.3 0
-13.2 -3 0
-13.2 -2.7 0
-13.2 -2.4 0
-13.2 -2.1 0
-13.2 -1.8 0
-13.2 -1.5 0
-13.2 -1.2 0
-13.2 -0.9 0
-13.2 -0.6 0
-13.2 -0.3 0
-13.2 0 0
-13.2 0.3 0
-13.2 0.6 0
-13.2 0.9 0
-13.2 1.2 0
-13.2 1.5 0
-13.2 1.8 0
-13.2 2.1 0
-13.2 2.4 0
-13.2 2.7 0
-13.2 3 0
-13.2 3.3 0
-13.2 3.6 0
-13.2 3.9 0
-13.2 4.2 0
-13.2 4.5 0
-13.2 4.8 0
-13.2 5.1 0
-13.2 5.4 0
-13.2 5.7 0
-13.2 6 0
-13.2 6.3 0
-13.2 6.6 0
-13.2 6.9 0
-13.2 7.2 0
-13.2 7.5 0
-13.2 7.8 0
-13.2 8.1 0
-13.2 8.4 0
-13.2 8.7 0
-13.2 9 0
-13.2 9.3 0
-13.2 9.6 0
-13.2 9.9 0
-13.2 10.2 0
-13.2 10.5 0
-13.2 10.8 0
-13.2 11.1 0
-13.2 11.4 0
-13.2 11.7 0
-13.2 12 0
-13.2 12.3 0
-13.2 12.6 0
-13.2 12.9 0
-13.2 13.2 0
-13.2 13.5 0
-13.2 13.8 0
-13.2 14.1 0
-13.2 14.4 0
-13.2 14.7 0
-13.2 15 0
-12.9 -15 0
-12.9 -14.7 0
-12.9 -14.4 0
-12.9 -14.1 0
-12.9 -13.8 0
-12.9 -13.5 0
-12.9 -13.2 0
-12.9 -12.9 0
-12.9 -12.6 0
-12.9 -12.3 0
-12.9 -12 0
-12.9 -11.7 0
-12.9 -11.4 0
-12.9 -11.1 0
-12.9 -10.8 0
-12.9 -10.5 0
-12.9 -10.2 0
-12.9 -9.9 0
-12.9 -9.6 0
-12.9 -9.3 0
-12.9 -9 0
-12.9 -8.7 0
-12.9 -8.4 0
-12.9 -8.1 0
-12.9 -7.8 0
-12.9 -7.5 0
-12.9 -7.2 0
-12.9 -6.9 0
-12.9 -6.6 0
-12.9 -6.3 0
-12.9 -6 0
-12.9 -5.7 0
-12.9 -5.4 0
-12.9 -5.1 0
-12.9 -4.8 0
-12.9 -4.5 0
-12.9 -4.2 0
-12.9 -3.9 0
-12.9 -3.6 0
-12.9 -3.3 0
-12.9 -3 0
-12.9 -2.7 0
-12.9 -2.4 0
-12.9 -2.1 0
-12.9 -1.8 0
-12.9 -1.5 0
-12.9 -1.2 0
-12.9 -0.9 0
-12.9 -0.6 0
-12.9 -0.3 0
-12.9 0 0
-12.9 0.3 0
-12.9 0.6 0
-12.9 0.9 0
-12.9 1.2 0
-12.9 1.5 0
-12.9 1.8 0
-12.9 2.1 0
-12.9 2.4 0
-12.9 2.7 0
-12.9 3 0
-12.9 3.3 0
-12.9 3.6 0
-12.9 3.9 0
-12.9 4.2 0
-12.9 4.5 0
-12.9 4.8 0
-12.9 5.1 0
-12.9 5.4 0
-12.9 5.7 0
-12.9 6 0
-12.9 6.3 0
-12.9 6.6 0
-12.9 6.9 0
-12.9 7.2 0
-12.9 7.5 0
-12.9 7.8 0
-12.9 8.1 0
-12.9 8.4 0
-12.9 8.7 0
-12.9 9 0
[...]
            <PointData>
                <DataArray type="Float64" Name="c1" format="ascii">
0.00392622 0.00393074 0.0039443 0.00396692 0.00399864 0.0040395 0.00408955 0.00414887 0.00421753 0.00429562 0.00438326 0.00448055 0.00458762 0.00470463 0.00483172 0.0049691 0.00511696 0.00527556 0.0054452 0.00562621 0.005819 0.00602404 0.00624184 0.00647298 0.006718 0.00697742 0.00725159 0.00754058 0.00784401 0.00816079 0.00848886 0.00882479 0.00916365 0.0094996 0.00982845 0.0101515 0.0104715 0.0107834 0.0110559 0.0112864 0.0114784 0.0116674 0.0118644 0.0120686 0.0122762 0.0124816 0.0126745 0.0128412 0.012978 0.0130866 0.0131706 0.0132351 0.0132806 0.0132634 0.0131862 0.0130515 0.0128631 0.012665 0.0124747 0.012295 0.0121232 0.0119559 0.0117882 0.0116149 0.011431 0.0112336 0.0110211 0.0107939 0.0105524 0.0102975 0.0100313 0.009757 0.00947824 0.00919836 0.00892015 0.00864588 0.00837736 0.00811603 0.00786304 0.00761927 0.00738544 0.00716208 0.00694958 0.00674825 0.00655829 0.00637983 0.00621297 0.00605774 0.00591417 0.00578225 0.00566196 0.00555327 0.00545616 0.00537057 0.00529649 0.00523386 0.00518267 0.00514289 0.00511449 0.00509745 0.00509177 
0.00392722 0.00393174 0.00394531 0.00396795 0.0039997 0.00404059 0.00409069 0.00415006 0.00421878 0.00429695 0.00438467 0.00448206 0.00458924 0.00470637 0.0048336 0.00497112 0.00511915 0.00527794 0.00544778 0.00562901 0.00582206 0.00602738 0.00624551 0.00647702 0.00672249 0.00698243 0.00725725 0.00754707 0.00785158 0.00816981 0.00849981 0.00883823 0.00917984 0.00951758 0.00984532 0.0101663 0.0104885 0.0108152 0.0110888 0.0113175 0.0114921 0.0116763 0.0118743 0.0120812 0.0122923 0.0125033 0.0127039 0.0128729 0.0130095 0.0131165 0.0131981 0.0132623 0.01333 0.0133125 0.0132352 0.0130997 0.0128896 0.0126823 0.0124901 0.0123108 0.0121403 0.0119747 0.0118094 0.0116381 0.0114555 0.0112584 0.0110454 0.0108174 0.0105748 0.0103183 0.0100498 0.00977317 0.00949234 0.00921073 0.00893114 0.00865575 0.0083863 0.00812417 0.00787048 0.00762609 0.0073917 0.00716782 0.00695486 0.00675311 0.00656276 0.00638395 0.00621676 0.00606125 0.00591741 0.00578526 0.00566476 0.00555589 0.00545861 0.00537288 0.00529868 0.00523596 0.00518468 0.00514484 0.00511639 0.00509933 0.00509364 
0.0039302 0.00393473 0.00394834 0.00397104 0.00400287 0.00404387 0.0040941 0.00415363 0.00422254 0.00430093 0.0043889 0.00448657 0.00459408 0.00471157 0.0048392 0.00497718 0.00512571 0.00528505 0.0054555 0.00563742 0.00583123 0.0060374 0.00625649 0.00648911 0.00673588 0.00699739 0.00727413 0.00756638 0.00787404 0.00819647 0.0085322 0.00887838 0.00922945 0.00957447 0.00989689 0.0102069 0.0105265 0.0108103 0.0110698 0.0113066 0.0115203 0.0116972 0.0119026 0.0121177 0.0123381 0.0125663 0.012797 0.0129706 0.0131053 0.0132069 0.0132782 0.0133211 0.0133238 0.0132923 0.0132248 0.0131214 0.0129571 0.0127273 0.0125339 0.0123577 0.0121909 0.0120306 0.0118732 0.0117088 0.0115303 0.0113339 0.0111186 0.0108884 0.0106426 0.0103811 0.0101054 0.00982142 0.00953423 0.00924751 0.00896385 0.00868516 0.00841298 0.0081485 0.00789274 0.00764651 0.00741044 0.00718504 0.00697069 0.00676766 0.00657614 0.00639628 0.00622813 0.00607174 0.00592713 0.00579427 0.00567314 0.00556371 0.00546595 0.0053798 0.00530524 0.00524222 0.00519071 0.00515067 0.00512209 0.00510496 0.00509924 
0.00393516 0.00393971 0.00395338 0.00397617 0.00400814 0.00404932 0.00409977 0.00415956 0.00422879 0.00430754 0.00439592 0.00449407 0.00460211 0.0047202 0.00484851 0.00498723 0.00513659 0.00529685 0.00546833 0.00565137 0.00584643 0.00605401 0.00627469 0.00650912 0.00675801 0.00702207 0.00730193 0.00759807 0.00791071 0.00823966 0.00858437 0.00894387 0.00931498 0.00968338 0.00998936 0.0102651 0.0105116 0.0107232 0.0109662 0.0112231 0.0114997 0.0117159 0.0119484 0.0121769 0.012405 0.0126567 0.0128533 0.0130103 0.0131352 0.0132244 0.0132786 0.0132939 0.0132356 0.0132001 0.0131474 0.0130704 0.012976 0.0127795 0.0126016 0.0124345 0.0122735 0.0121211 0.0119815 0.0118303 0.0116593 0.011464 0.0112411 0.0110081 0.010758 0.0104884 0.0101982 0.0099007 0.00960266 0.00930761 0.00901749 0.00873361 0.00845707 0.00818882 0.0079297 0.00768043 0.0074416 0.00721367 0.006997 0.00679185 0.0065984 0.00641677 0.00624702 0.00608918 0.00594326 0.00580923 0.00568706 0.00557671 0.00547813 0.00539129 0.00531613 0.00525261 0.0052007 0.00516036 0.00513156 0.00511429 0.00510853 
0.00394206 0.00394664 0.00396038 0.00398332 0.00401547 0.0040569 0.00410765 0.00416782 0.00423748 0.00431673 0.0044057 0.00450451 0.00461329 0.00473222 0.00486146 0.00500123 0.00515174 0.00531329 0.00548618 0.00567079 0.00586758 0.00607709 0.00629993 0.00653684 0.00678862 0.00705612 0.00734018 0.00764153 0.00796063 0.00829759 0.00865278 0.0090288 0.0094342 0.00976211 0.0100146 0.0102399 0.0104245 0.0106505 0.0108975 0.011162 0.0114493 0.0117586 0.0120264 0.0122646 0.0124766 0.0127003 0.0128538 0.0129954 0.0131124 0.0131961 0.0132394 0.0132359 0.0132245 0.0132038 0.0131612 0.0130902 0.0129859 0.0128466 0.0126996 0.0125445 0.0123858 0.0122372 0.0121404 0.0120103 0.0118504 0.0116586 0.011409 0.0111787 0.0109251 0.0106468 0.0103275 0.0100083 0.00969512 0.00938921 0.00909086 0.00880033 0.00851812 0.00824484 0.00798118 0.00772774 0.00748508 0.00725363 0.00703372 0.00682561 0.00662944 0.00644534 0.00627335 0.00611348 0.00596573 0.00583006 0.00570643 0.0055948 0.00549509 0.00540727 0.00533128 0.00526707 0.00521459 0.00517382 0.00514472 0.00512727 0.00512145 
0.00395086 0.00395548 0.00396932 0.00399243 0.00402482 0.00406656 0.00411771 0.00417835 0.00424856 0.00432846 0.00441817 0.00451782 0.00462755 0.00474755 0.00487799 0.00501908 0.00517108 0.00533425 0.00550895 0.00569555 0.00589453 0.00610647 0.00633202 0.006572 0.00682734 0.00709907 0.00738833 0.00769613 0.00802306 0.00836884 0.00873258 0.00911723 0.00949011 0.00971704 0.00995013 0.0101689 0.0103835 0.0106187 0.0108709 0.0111406 0.0114411 0.0117855 0.0120735 0.0123347 0.0125601 0.0127331 0.0128905 0.0130328 0.0131528 0.0132428 0.0132926 0.013285 0.013298 0.0132939 0.0132586 0.0131866 0.0130742 0.0129691 0.0128467 0.0126975 0.0125271 0.0123421 0.0122344 0.012134 0.0119929 0.0118342 0.0115942 0.0113185 0.0110623 0.0107932 0.0104861 0.0101382 0.00980755 0.00948992 0.00918264 0.00888461 0.00859573 0.00831634 0.00804702 0.00778833 0.00754079 0.00730482 0.00708076 0.00686882 0.00666917 0.00648188 0.006307 0.00614453 0.00599443 0.00585666 0.00573116 0.00561787 0.00551672 0.00542765 0.00535059 0.0052855 0.0052323 0.00519098 0.00516149 0.0051438 0.00513791 
0.00396152 0.00396617 0.00398014 0.00400345 0.00403614 0.00407827 0.00412989 0.00419109 0.00426198 0.00434266 0.00443326 0.00453392 0.00464481 0.0047661 0.00489798 0.00504069 0.00519447 0.00535963 0.0055365 0.0057255 0.00592711 0.00614193 0.00637068 0.00661424 0.00687367 0.00715028 0.00744559 0.00776114 0.00809791 0.00845486 0.00882559 0.00919118 0.00950107 0.00971959 0.00995082 0.0101794 0.0103992 0.0106323 0.0108944 0.01117 0.0114817 0.0118043 0.0121039 0.0123815 0.0126318 0.0128066 0.0129682 0.01312 0.0132526 0.0133607 0.0134367 0.0134777 0.013483 0.0134664 0.0134363 0.0133616 0.0132267 0.0131649 0.0130617 0.0129116 0.0127235 0.0125008 0.0123277 0.0122162 0.0120746 0.0119111 0.0117156 0.0114311 0.0111552 0.0108802 0.0106139 0.0102803 0.00993502 0.00960756 0.0092919 0.00898608 0.00868975 0.00840326 0.00812718 0.00786213 0.00760864 0.00736715 0.00713798 0.00692136 0.00671743 0.00652625 0.00634784 0.00618217 0.00602921 0.00588887 0.0057611 0.0056458 0.00554289 0.0054523 0.00537395 0.00530777 0.00525371 0.00521171 0.00518175 0.00516378 0.00515779 
0.00397396 0.00397866 0.00399278 0.00401633 0.00404937 0.00409193 0.00414411 0.00420598 0.00427765 0.00435923 0.00445088 0.00455273 0.00466496 0.00478776 0.00492133 0.00506592 0.0052218 0.00538926 0.00556867 0.00576046 0.00596511 0.00618325 0.0064156 0.00666311 0.00692699 0.0072088 0.00751062 0.00783498 0.00818457 0.00856079 0.00895938 0.00929579 0.00954285 0.00975611 0.0099873 0.0102225 0.0104593 0.0107022 0.0109625 0.0112453 0.0115573 0.0118789 0.0121886 0.0124721 0.0127179 0.0129083 0.013083 0.0132554 0.0134078 0.0135416 0.013666 0.0137693 0.0137607 0.0137434 0.0137092 0.013635 0.013524 0.0134739 0.0133657 0.0132052 0.0129957 0.0127377 0.0125158 0.0123786 0.0122218 0.0120422 0.0118284 0.011565 0.0112904 0.0110109 0.0107358 0.0104194 0.0100746 0.00974192 0.00941902 0.00910513 0.00880051 0.00850579 0.00822176 0.00794915 0.00768858 0.0074405 0.00720526 0.00698308 0.00677406 0.00657826 0.00639567 0.00622624 0.00606989 0.00592653 0.00579607 0.00567841 0.00557343 0.00548106 0.00540119 0.00533375 0.00527867 0.00523589 0.00520537 0.00518707 0.00518097 
0.00398812 0.00399288 0.00400716 0.00403099 0.00406441 0.00410748 0.00416029 0.00422291 0.00429547 0.00437809 0.00447092 0.00457413 0.00468788 0.00481239 0.00494789 0.00509462 0.00525287 0.00542297 0.00560527 0.00580022 0.00600831 0.00623014 0.00646645 0.00671818 0.00698657 0.00727339 0.00758122 0.0079139 0.00827692 0.00867818 0.00905621 0.00933228 0.00955441 0.00979527 0.0100362 0.0102771 0.0105302 0.0107928 0.0110647 0.0113448 0.0116725 0.0120124 0.0123343 0.0126188 0.0128708 0.0130642 0.0132505 0.0134393 0.0136158 0.0137633 0.0139402 0.0140565 0.0141041 0.0141143 0.014092 0.0140301 0.0139582 0.0138872 0.0137669 0.0135919 0.0133601 0.0130671 0.0127716 0.0126101 0.0124351 0.0122358 0.0120143 0.011752 0.0114742 0.0111833 0.0108945 0.0105784 0.0102342 0.00989685 0.00956619 0.00924314 0.00892882 0.00862441 0.008331 0.00804948 0.00778057 0.00752478 0.00728244 0.00705376 0.00683885 0.0066377 0.00645027 0.00627649 0.00611625 0.00596942 0.00583588 0.0057155 0.00560816 0.00551374 0.00543214 0.00536325 0.00530701 0.00526334 0.00523218 0.0052135 0.00520728 
0.00400392 0.00400874 0.0040232 0.00404734 0.0040812 0.00412483 0.00417833 0.0042418 0.00431535 0.00439912 0.00449327 0.00459798 0.00471343 0.00483985 0.00497749 0.0051266 0.0052875 0.00546053 0.00564606 0.00584453 0.00605644 0.00628236 0.00652295 0.00677907 0.00705183 0.00734292 0.00765502 0.00799268 0.00836324 0.00877519 0.00907151 0.00932541 0.00957706 0.00983311 0.0100885 0.010354 0.0106293 0.0109093 0.0111897 0.011467 0.0118504 0.0121974 0.0125097 0.0127985 0.0130798 0.0132991 0.0135036 0.0136971 0.0138876 0.0140743 0.0142938 0.0144417 0.01453 0.0145693 0.0145681 0.0145229 0.0144724 0.0143994 0.0142712 0.0140827 0.0138329 0.0135278 0.0131732 0.0129064 0.0127185 0.0124997 0.0122618 0.012006 0.0117199 0.0114005 0.0110861 0.010767 0.0104223 0.0100776 0.00973663 0.00940203 0.00907584 0.00875977 0.0084552 0.0081632 0.00788456 0.00761981 0.0073693 0.00713318 0.00691152 0.00670429 0.00651138 0.00633268 0.00616804 0.00601729 0.00588029 0.00575686 0.00564686 0.00555014 0.00546659 0.00539609 0.00533854 0.00529387 0.005262 0.0052429 0.00523654 
0.00402127 0.00402615 0.00404082 0.00406529 0.00409962 0.00414387 0.00419814 0.00426253 0.00433717 0.0044222 0.00451779 0.00462414 0.00474145 0.00486996 0.00500993 0.00516165 0.00532546 0.0055017 0.00569077 0.00589313 0.00610924 0.00633964 0.00658489 0.00684565 0.00712268 0.00741712 0.00773099 0.00806857 0.00844026 0.00881857 0.00908539 0.00935083 0.00961638 0.00988436 0.0101587 0.0104534 0.0107536 0.0110541 0.011349 0.0116984 0.0120786 0.0124169 0.0127337 0.013036 0.0133314 0.0135905 0.013829 0.0140526 0.0142651 0.0145087 0.0147143 0.0149193 0.015045 0.0151103 0.0151326 0.0151107 0.0151049 0.0150211 0.0148882 0.014686 0.014411 0.0140881 0.0137359 0.0133917 0.0131032 0.0128569 0.0125915 0.0123277 0.0120551 0.0117029 0.0113449 0.0110044 0.0106486 0.0102898 0.00993367 0.00958381 0.00924272 0.00891245 0.00859458 0.00829028 0.00800038 0.00772537 0.00746555 0.00722102 0.00699177 0.0067777 0.00657867 0.00639449 0.00622495 0.00606986 0.00592901 0.00580221 0.00568927 0.00559002 0.00550433 0.00543204 0.00537306 0.00532728 0.00529463 0.00527506 0.00526854 
0.00404005 0.00404501 0.00405989 0.00408473 0.00411957 0.0041645 0.00421959 0.00428498 0.00436079 0.00444718 0.00454433 0.00465244 0.00477175 0.00490251 0.005045 0.00519954 0.00536647 0.00554619 0.0057391 0.00594568 0.00616639 0.00640173 0.00665216 0.00691807 0.00719972 0.00749723 0.00781068 0.0081404 0.00848737 0.008798 0.00911539 0.00939787 0.00967272 0.00994718 0.0102443 0.0105737 0.0109025 0.0112308 0.0115735 0.0119638 0.0123159 0.0126703 0.0130073 0.0133284 0.0136496 0.0139502 0.0142299 0.0144933 0.0147398 0.0150096 0.0152593 0.0155123 0.0156578 0.0157432 0.0157837 0.0157889 0.015805 0.0157516 0.0156321 0.0154171 0.0150898 0.0147293 0.0143441 0.0139839 0.0136288 0.0133133 0.0130067 0.0127141 0.0124409 0.012081 0.0116879 0.0113038 0.0109194 0.0105371 0.0101597 0.00978992 0.0094302 0.00908272 0.00874911 0.00843053 0.00812771 0.00784107 0.00757078 0.00731686 0.00707917 0.00685755 0.00665176 0.00646155 0.00628665 0.00612679 0.00598174 0.00585126 0.00573511 0.00563311 0.00554508 0.00547085 0.00541031 0.00536333 0.00532983 0.00530976 0.00530307 
0.00406017 0.00406521 0.00408032 0.00410555 0.00414094 0.00418658 0.00424257 0.00430901 0.00438607 0.00447391 0.00457272 0.00468272 0.00480416 0.00493731 0.00508247 0.00524 0.00541025 0.00559366 0.00579067 0.00600178 0.00622749 0.00646828 0.00672458 0.00699659 0.00728413 0.0075863 0.0079011 0.00822489 0.00855072 0.00885978 0.00919129 0.00946807 0.0097409 0.00999735 0.0103252 0.0107143 0.0110701 0.0114236 0.0117921 0.0121846 0.0125776 0.0129585 0.0133281 0.0136974 0.0140494 0.0143844 0.0147037 0.0150132 0.0152976 0.0156151 0.0159242 0.0161904 0.0163617 0.0164733 0.016529 0.0165387 0.0165233 0.0165005 0.0163902 0.016176 0.0158567 0.0154477 0.0150414 0.0146117 0.0142163 0.0138331 0.0134873 0.0131584 0.012866 0.0125007 0.0120822 0.0116549 0.0112335 0.0108205 0.0104157 0.0100208 0.00963833 0.00927032 0.00891835 0.00858339 0.00826599 0.00796634 0.00768445 0.00742017 0.00717324 0.00694337 0.00673022 0.00653345 0.00635273 0.00618773 0.00603814 0.00590368 0.00578408 0.00567911 0.00558857 0.00551226 0.00545003 0.00540177 0.00536736 0.00534675 0.00533988 
0.00408151 0.00408663 0.00410199 0.00412763 0.00416361 0.00421 0.00426692 0.0043345 0.00441288 0.00450225 0.00460281 0.00471479 0.00483847 0.00497413 0.0051221 0.00528274 0.00545648 0.00564375 0.00584507 0.00606096 0.006292 0.00653875 0.0068017 0.00708112 0.0073767 0.00768705 0.0080088 0.00833611 0.00866243 0.00899187 0.0092737 0.00955735 0.00982638 0.0101379 0.0105201 0.0108983 0.0112649 0.0116391 0.0120339 0.0124503 0.0128751 0.0132922 0.0137107 0.0141265 0.0145172 0.0148859 0.0152396 0.0156159 0.0159446 0.0162721 0.0166367 0.0169359 0.0171479 0.0172952 0.0173735 0.0173869 0.0173451 0.0172608 0.0171212 0.0169006 0.0166255 0.0162128 0.0157683 0.0153076 0.0148776 0.0144337 0.0140097 0.013649 0.0133161 0.0129714 0.0125485 0.0120556 0.0115881 0.0111393 0.0107013 0.010276 0.00986617 0.00947419 0.00910125 0.00874791 0.00841432 0.00810039 0.00780583 0.0075303 0.00727336 0.00703459 0.00681352 0.00660972 0.00642276 0.00625225 0.00609782 0.00595911 0.00583584 0.00572771 0.00563449 0.00555597 0.00549196 0.00544233 0.00540695 0.00538576 0.0053787 
0.00410394 0.00410915 0.00412477 0.00415084 0.00418743 0.00423462 0.00429253 0.00436128 0.00444105 0.00453202 0.0046344 0.00474846 0.00487446 0.00501273 0.0051636 0.00532748 0.00550481 0.00569607 0.00590181 0.00612263 0.00635922 0.00661227 0.00688253 0.00717061 0.00747673 0.00779993 0.00813622 0.00847591 0.00880072 0.00911873 0.00941332 0.00969831 0.00997875 0.0103341 0.0107061 0.011065 0.0114558 0.011862 0.012288 0.0127414 0.0132073 0.013673 0.0141399 0.0145993 0.0150383 0.0154476 0.0158731 0.0162873 0.0166476 0.0170253 0.0174239 0.0177343 0.018025 0.0182277 0.0183394 0.0183646 0.0183098 0.0181884 0.0179995 0.0177313 0.0173947 0.016983 0.0164889 0.0160255 0.0155519 0.0150767 0.0145862 0.0141359 0.0137245 0.0133699 0.012987 0.0124887 0.0119755 0.0114929 0.0110156 0.0105533 0.0101115 0.00969231 0.00929609 0.00892264 0.00857151 0.00824217 0.00793402 0.00764645 0.00737883 0.00713057 0.00690108 0.00668981 0.00649625 0.00631991 0.00616035 0.00601717 0.00589002 0.00577856 0.00568252 0.00560166 0.00553578 0.00548471 0.00544832 0.00542653 0.00541927 
0.00412733 0.00413263 0.00414852 0.00417505 0.00421227 0.0042603 0.00431923 0.00438921 0.00447041 0.00456304 0.00466733 0.00478353 0.00491193 0.00505288 0.00520674 0.00537392 0.0055549 0.00575019 0.00596039 0.00618618 0.00642832 0.00668771 0.00696542 0.00726274 0.0075812 0.0079221 0.00828394 0.00861855 0.0089276 0.00924185 0.00953982 0.00981918 0.010125 0.0104637 0.0108209 0.011214 0.0116426 0.0120859 0.0125499 0.013045 0.0135638 0.014075 0.0145882 0.0150984 0.0155902 0.0160744 0.0165645 0.0169868 0.0174105 0.0178462 0.0182783 0.0186526 0.0190222 0.0192968 0.0194479 0.0194897 0.0194266 0.0192687 0.019028 0.0186936 0.0182731 0.0177822 0.0172924 0.0167902 0.0162602 0.0157093 0.0151577 0.0146318 0.0141508 0.0137145 0.0133173 0.0128897 0.0123867 0.0118884 0.0113571 0.0108487 0.0103704 0.00992152 0.00950043 0.00910567 0.00873602 0.00839043 0.00806795 0.00776769 0.00748882 0.00723059 0.00699225 0.00677315 0.00657266 0.00639022 0.0062253 0.00607744 0.00594622 0.00583129 0.00573231 0.00564902 0.00558119 0.00552862 0.00549117 0.00546874 0.00546127 
0.00415155 0.00415694 0.00417311 0.0042001 0.004238 0.00428688 0.00434687 0.00441812 0.00450081 0.00459516 0.00470139 0.00481979 0.00495066 0.00509435 0.00525124 0.00542176 0.00560642 0.00580574 0.00602036 0.00625098 0.00649845 0.00676379 0.00704833 0.00735397 0.00768381 0.00804397 0.00839849 0.00869764 0.00900403 0.00931223 0.0096148 0.00995509 0.0102843 0.0106264 0.0109837 0.011397 0.0118445 0.0123251 0.0128445 0.0133818 0.0139305 0.0144782 0.0150459 0.0156219 0.0161744 0.0167183 0.01724 0.0177407 0.0182484 0.0187685 0.0192808 0.0197472 0.0201897 0.0205294 0.0207177 0.020769 0.0207071 0.0205241 0.0202279 0.0198204 0.01931 0.0187267 0.0181744 0.0176032 0.0169963 0.0163664 0.0157406 0.0151546 0.0146018 0.0140923 0.0136271 0.0132013 0.0127347 0.0122659 0.0117177 0.0111527 0.0106364 0.0101575 0.00971127 0.00929477 0.0089061 0.00854373 0.0082064 0.00789298 0.00760244 0.00733385 0.00708633 0.0068591 0.00665142 0.00646264 0.00629216 0.00613946 0.00600405 0.00588552 0.0057835 0.0056977 0.00562784 0.00557372 0.00553518 0.0055121 0.00550441 
0.00417644 0.00418193 0.00419839 0.00422587 0.00426444 0.00431421 0.00437529 0.00444785 0.00453207 0.00462817 0.00473641 0.00485705 0.00499043 0.0051369 0.00529686 0.00547075 0.00565907 0.00586238 0.0060813 0.00631655 0.00656897 0.00683955 0.00712959 0.00744083 0.00777593 0.00813895 0.00848172 0.00878434 0.00909777 0.00940769 0.00975389 0.0101212 0.0104648 0.0108242 0.0111982 0.0116155 0.0120858 0.0126073 0.0131762 0.0137411 0.014293 0.0148722 0.015506 0.0161374 0.0167742 0.0174134 0.018008 0.0185786 0.0191787 0.0198067 0.0204354 0.0210275 0.0215545 0.0219529 0.0221975 0.0222766 0.0221894 0.0219756 0.0216261 0.0211383 0.0205197 0.0197741 0.01913 0.0184665 0.0177688 0.0170592 0.0163617 0.0157016 0.0150782 0.0144892 0.013963 0.0134893 0.0130255 0.0125717 0.0120375 0.0114463 0.0109013 0.0103958 0.00992553 0.00948762 0.00907988 0.00870053 0.00834808 0.0080212 0.0077187 0.00743948 0.00718254 0.00694695 0.0067319 0.00653662 0.00636045 0.00620277 0.00606305 0.00594084 0.00583571 0.00574732 0.00567539 0.00561969 0.00558003 0.00555628 0.00554837 