<?xml version="1.0"?>
<VTKFile type="StructuredGrid" version="0.1">
    <StructuredGrid WholeExtent="0 100 0 100 0 0">
        <Piece Extent="0 100 0 100 0 0">
            <Points>
                <DataArray type="Float64" NumberOfComponents="3" format="ascii">
-15 -15 0
-15 -14.7 0
-15 -14.4 0
-15 -14.1 0
-15 -13.8 0
-15 -13.5 0
-15 -13.2 0
-15 -12.9 0
-15 -12.6 0
-15 -12.3 0
-15 -12 0
-15 -11.7 0
-15 -11.4 0
-15 -11.1 0
-15 -10.8 0
-15 -10.5 0
-15 -10.2 0
-15 -9.9 0
-15 -9.6 0
-15 -9.3 0
-15 -9 0
-15 -8.7 0
-15 -8.4 0
-15 -8.1 0
-15 -7.8 0
-15 -7.5 0
-15 -7.2 0
-15 -6.9 0
-15 -6.6 0
-15 -6.3 0
-15 -6 0
-15 -5.7 0
-15 -5.4 0
-15 -5.1 0
-15 -4.8 0
-15 -4.5 0
-15 -4.2 0
-15 -3.9 0
-15 -3.6 0
-15 -3.3 0
-15 -3 0
-15 -2.7 0
-15 -2.4 0
-15 -2.1 0
-15 -1.8 0
-15 -1.5 0
-15 -1.2 0
-15 -0.9 0
-15 -0.6 0
-15 -0.3 0
-15 0 0
-15 0.3 0
-15 0.6 0
-15 0.9 0
-15 1.2 0
-15 1.5 0
-15 1.8 0
-15 2.1 0
-15 2.4 0
-15 2.7 0
-15 3 0
-15 3.3 0
-15 3.6 0
-15 3.9 0
-15 4.2 0
-15 4.5 0
-15 4.8 0
-15 5.1 0
-15 5.4 0
-15 5.7 0
-15 6 0
-15 6.3 0
-15 6.6 0
-15 6.9 0
-15 7.2 0
-15 7.5 0
-15 7.8 0
-15 8.1 0
-15 8.4 0
-15 8.7 0
-15 9 0
-15 9.3 0
-15 9.6 0
-15 9.9 0
-15 10.2 0
-15 10.5 0
-15 10.8 0
-15 11.1 0
-15 11.4 0
-15 11.7 0
-15 12 0
-15 12.3 0
-15 12.6 0
-15 12.9 0
-15 13.2 0
-15 13.5 0
-15 13.8 0
-15 14.1 0
-15 14.4 0
-15 14.7 0
-15 15 0
-14.7 -15 0
-14.7 -14.7 0
-14.7 -14.4 0
-14.7 -14.1 0
-14.7 -13.8 0
-14.7 -13.5 0
-14.7 -13.2 0
-14.7 -12.9 0
-14.7 -12.6 0
-14.7 -12.3 0
-14.7 -12 0
-14.7 -11.7 0
-14.7 -11.4 0
-14.7 -11.1 0
-14.7 -10.8 0
-14.7 -10.5 0
-14.7 -10.2 0
-14.7 -9.9 0
-14.7 -9.6 0
-14.7 -9.3 0
-14.7 -9 0
-14.7 -8.7 0
-14.7 -8.4 0
-14.7 -8.1 0
-14.7 -7.8 0
-14.7 -7.5 0
-14.7 -7.2 0
-14.7 -6.9 0
-14.7 -6.6 0
-14.7 -6.3 0
-14.7 -6 0
-14.7 -5.7 0
-14.7 -5.4 0
-14.7 -5.1 0
-14.7 -4.8 0
-14.7 -4.5 0
-14.7 -4.2 0
-14.7 -3.9 0
-14.7 -3.6 0
-14.7 -3.3 0
-14.7 -3 0
-14.7 -2.7 0
-14.7 -2.4 0
-14.7 -2.1 0
-14.7 -1.8 0
-14.7 -1.5 0
-14.7 -1.2 0
-14.7 -0.9 0
-14.7 -0.6 0
-14.7 -0.3 0
-14.7 0 0
-14.7 0.3 0
-14.7 0.6 0
-14.7 0.9 0
-14.7 1.2 0
-14.7 1.5 0
-14.7 1.8 0
-14.7 2.1 0
-14.7 2.4 0
-14.7 2.7 0
-14.7 3 0
-14.7 3.3 0
-14.7 3.6 0
-14.7 3.9 0
-14.7 4.2 0
-14.7 4.5 0
-14.7 4.8 0
-14.7 5.1 0
-14.7 5.4 0
-14.7 5.7 0
-14.7 6 0
-14.7 6.3 0
-14.7 6.6 0
-14.7 6.9 0
-14.7 7.2 0
-14.7 7.5 0
-14.7 7.8 0
-14.7 8.1 0
-14.7 8.4 0
-14.7 8.7 0
-14.7 9 0
-14.7 9.3 0
-14.7 9.6 0
-14.7 9.9 0
-14.7 10.2 0
-14.7 10.5 0
-14.7 10.8 0
-14.7 11.1 0
-14.7 11.4 0
-14.7 11.7 0
-14.7 12 0
-14.7 12.3 0
-14.7 12.6 0
-14.7 12.9 0
-14.7 13.2 0
-14.7 13.5 0
-14.7 13.8 0
-14.7 14.1 0
-14.7 14.4 0
-14.7 14.7 0
-14.7 15 0
-14.4 -15 0
-14.4 -14.7 0
-14.4 -14.4 0
-14.4 -14.1 0
-14.4 -13.8 0
-14.4 -13.5 0
-14.4 -13.2 0
-14.4 -12.9 0
-14.4 -12.6 0
-14.4 -12.3 0
-14.4 -12 0
-14.4 -11.7 0
-14.4 -11.4 0
-14.4 -11.1 0
-14.4 -10.8 0
-14.4 -10.5 0
-14.4 -10.2 0
-14.4 -9.9 0
-14.4 -9.6 0
-14.4 -9.3 0
-14.4 -9 0
-14.4 -8.7 0
-14.4 -8.4 0
-14.4 -8.1 0
-14.4 -7.8 0
-14.4 -7.5 0
-14.4 -7.2 0
-14.4 -6.9 0
-14.4 -6.6 0
-14.4 -6.3 0
-14.4 -6 0
-14.4 -5.7 0
-14.4 -5.4 0
-14.4 -5.1 0
-14.4 -4.8 0
-14.4 -4.5 0
-14.4 -4.2 0
-14.4 -3.9 0
-14.4 -3.6 0
-14.4 -3.3 0
-14.4 -3 0
-14.4 -2.7 0
-14.4 -2.4 0
-14.4 -2.1 0
-14.4 -1.8 0
-14.4 -1.5 0
-14.4 -1.2 0
-14.4 -0.9 0
-14.4 -0.6 0
-14.4 -0.3 0
-14.4 0 0
-14.4 0.3 0
-14.4 0.6 0
-14.4 0.9 0
-14.4 1.2 0
-14.4 1.5 0
-14.4 1.8 0
-14.4 2.1 0
-14.4 2.4 0
-14.4 2.7 0
-14.4 3 0
-14.4 3.3 0
-14.4 3.6 0
-14.4 3.9 0
-14.4 4.2 0
-14.4 4.5 0
-14.4 4.8 0
-14.4 5.1 0
-14.4 5.4 0
-14.4 5.7 0
-14.4 6 0
-14.4 6.3 0
-14.4 6.6 0
-14.4 6.9 0
-14.4 7.2 0
-14.4 7.5 0
-14.4 7.8 0
-14.4 8.1 0
-14.4 8.4 0
-14.4 8.7 0
-14.4 9 0
-14.4 9.3 0
-14.4 9.6 0
-14.4 9.9 0
-14.4 10.2 0
-14.4 10.5 0
-14.4 10.8 0
-14.4 11.1 0
-14.4 11.4 0
-14.4 11.7 0
-14.4 12 0
-14.4 12.3 0
-14.4 12.6 0
-14.4 12.9 0
-14.4 13.2 0
-14.4 13.5 0
-14.4 13.8 0
-14.4 14.1 0
-14.4 14.4 0
-14.4 14.7 0
-14.4 15 0
-14.1 -15 0
-14.1 -14.7 0
-14.1 -14.4 0
-14.1 -14.1 0
-14.1 -13.8 0
-14.1 -13.5 0
-14.1 -13.2 0
-14.1 -12.9 0
-14.1 -12.6 0
-14.1 -12.3 0
-14.1 -12 0
-14.1 -11.7 0
-14.1 -11.4 0
-14.1 -11.1 0
-14.1 -10.8 0
-14.1 -10.5 0
-14.1 -10.2 0
-14.1 -9.9 0
-14.1 -9.6 0
-14.1 -9.3 0
-14.1 -9 0
-14.1 -8.7 0
-14.1 -8.4 0
-14.1 -8.1 0
-14.1 -7.8 0
-14.1 -7.5 0
-14.1 -7.2 0
-14.1 -6.9 0
-14.1 -6.6 0
-14.1 -6.3 0
-14.1 -6 0
-14.1 -5.7 0
-14.1 -5.4 0
-14.1 -5.1 0
-14.1 -4.8 0
-14.1 -4.5 0
-14.1 -4.2 0
-14.1 -3.9 0
-14.1 -3.6 0
-14.1 -3.3 0
-14.1 -3 0
-14.1 -2.7 0
-14.1 -2.4 0
-14.1 -2.1 0
-14.1 -1.8 0
-14.1 -1.5 0
-14.1 -1.2 0
-14.1 -0.9 0
-14.1 -0.6 0
-14.1 -0.3 0
-14.1 0 0
-14.1 0.3 0
-14.1 0.6 0
-14.1 0.9 0
-14.1 1.2 0
-14.1 1.5 0
-14.1 1.8 0
-14.1 2.1 0
-14.1 2.4 0
-14.1 2.7 0
-14.1 3 0
-14.1 3.3 0
-14.1 3.6 0
-14.1 3.9 0
-14.1 4.2 0
-14.1 4.5 0
-14.1 4.8 0
-14.1 5.1 0
-14.1 5.4 0
-14.1 5.7 0
-14.1 6 0
-14.1 6.3 0
-14.1 6.6 0
-14.1 6.9 0
-14.1 7.2 0
-14.1 7.5 0
-14.1 7.8 0
-14.1 8.1 0
-14.1 8.4 0
-14.1 8.7 0
-14.1 9 0
-14.1 9.3 0
-14.1 9.6 0
-14.1 9.9 0
-14.1 10.2 0
-14.1 10.5 0
-14.1 10.8 0
-14.1 11.1 0
-14.1 11.4 0
-14.1 11.7 0
-14.1 12 0
-14.1 12.3 0
-14.1 12.6 0
-14.1 12.9 0
-14.1 13.2 0
-14.1 13.5 0
-14.1 13.8 0
-14.1 14.1 0
-14.1 14.4 0
-14.1 14.7 0
-14.1 15 0
-13.8 -15 0
-13.8 -14.7 0
-13.8 -14.4 0
-13.8 -14.1 0
-13.8 -13.8 0
-13.8 -13.5 0
-13.8 -13.2 0
-13.8 -12.9 0
-13.8 -12.6 0
-13.8 -12.3 0
-13.8 -12 0
-13.8 -11.7 0
-13.8 -11.4 0
-13.8 -11.1 0
-13.8 -10.8 0
-13.8 -10.5 0
-13.8 -10.2 0
-13.8 -9.9 0
-13.8 -9.6 0
-13.8 -9.3 0
-13.8 -9 0
-13.8 -8.7 0
-13.8 -8.4 0
-13.8 -8.1 0
-13.8 -7.8 0
-13.8 -7.5 0
-13.8 -7.2 0
-13.8 -6.9 0
-13.8 -6.6 0
-13.8 -6.3 0
-13.8 -6 0
-13.8 -5.7 0
-13.8 -5.4 0
-13.8 -5.1 0
-13.8 -4.8 0
-13.8 -4.5 0
-13.8 -4.2 0
-13.8 -3.9 0
-13.8 -3.6 0
-13.8 -3.3 0
-13.8 -3 0
-13.8 -2.7 0
-13.8 -2.4 0
-13.8 -2.1 0
-13.8 -1.8 0
-13.8 -1.5 0
-13.8 -1.2 0
-13.8 -0.9 0
-13.8 -0.6 0
-13.8 -0.3 0
-13.8 0 0
-13.8 0.3 0
-13.8 0.6 0
-13.8 0.9 0
-13.8 1.2 0
-13.8 1.5 0
-13.8 1.8 0
-13.8 2.1 0
-13.8 2.4 0
-13.8 2.7 0
-13.8 3 0
-13.8 3.3 0
-13.8 3.6 0
-13.8 3.9 0
-13.8 4.2 0
-13.8 4.5 0
-13.8 4.8 0
-13.8 5.1 0
-13.8 5.4 0
-13.8 5.7 0
-13.8 6 0
-13.8 6.3 0
-13.8 6.6 0
-13.8 6.9 0
-13.8 7.2 0
-13.8 7.5 0
-13.8 7.8 0
-13.8 8.1 0
-13.8 8.4 0
-13.8 8.7 0
-13.8 9 0
-13.8 9.3 0
-13.8 9.6 0
-13.8 9.9 0
-13.8 10.2 0
-13.8 10.5 0
-13.8 10.8 0
-13.8 11.1 0
-13.8 11.4 0
-13.8 11.7 0
-13.8 12 0
-13.8 12.3 0
-13.8 12.6 0
-13.8 12.9 0
-13.8 13.2 0
-13.8 13.5 0
-13.8 13.8 0
-13.8 14.1 0
-13.8 14.4 0
-13.8 14.7 0
-13.8 15 0
-13.5 -15 0
-13.5 -14.7 0
-13.5 -14.4 0
-13.5 -14.1 0
-13.5 -13.8 0
-13.5 -13.5 0
-13.5 -13.2 0
-13.5 -12.9 0
-13.5 -12.6 0
-13.5 -12.3 0
-13.5 -12 0
-13.5 -11.7 0
-13.5 -11.4 0
-13.5 -11.1 0
-13.5 -10.8 0
-13.5 -10.5 0
-13.5 -10.2 0
-13.5 -9.9 0
-13.5 -9.6 0
-13.5 -9.3 0
-13.5 -9 0
-13.5 -8.7 0
-13.5 -8.4 0
-13.5 -8.1 0
-13.5 -7.8 0
-13.5 -7.5 0
-13.5 -7.2 0
-13.5 -6.9 0
-13.5 -6.6 0
-13.5 -6.3 0
-13.5 -6 0
-13.5 -5.7 0
-13.5 -5.4 0
-13.5 -5.1 0
-13.5 -4.8 0
-13.5 -4.5 0
-13.5 -4.2 0
-13.5 -3.9 0
-13.5 -3.6 0
-13.5 -3.3 0
-13.5 -3 0
-13.5 -2.7 0
-13.5 -2.4 0
-13.5 -2.1 0
-13.5 -1.8 0
-13.5 -1.5 0
-13.5 -1.2 0
-13.5 -0.9 0
-13.5 -0.6 0
-13.5 -0.3 0
-13.5 0 0
-13.5 0.3 0
-13.5 0.6 0
-13.5 0.9 0
-13.5 1.2 0
-13.5 1.5 0
-13.5 1.8 0
-13.5 2.1 0
-13.5 2.4 0
-13.5 2.7 0
-13.5 3 0
-13.5 3.3 0
-13.5 3.6 0
-13.5 3.9 0
-13.5 4.2 0
-13.5 4.5 0
-13.5 4.8 0
-13.5 5.1 0
-13.5 5.4 0
-13.5 5.7 0
-13.5 6 0
-13.5 6.3 0
-13.5 6.6 0
-13.5 6.9 0
-13.5 7.2 0
-13.5 7.5 0
-13.5 7.8 0
-13.5 8.1 0
-13.5 8.4 0
-13.5 8.7 0
-13.5 9 0
-13.5 9.3 0
-13.5 9.6 0
-13.5 9.9 0
-13.5 10.2 0
-13.5 10.5 0
-13.5 10.8 0
-13.5 11.1 0
-13.5 11.4 0
-13.5 11.7 0
-13.5 12 0
-13.5 12.3 0
-13.5 12.6 0
-13.5 12.9 0
-13.5 13.2 0
-13.5 13.5 0
-13.5 13.8 0
-13.5 14.1 0
-13.5 14.4 0
-13.5 14.7 0
-13.5 15 0
-13.2 -15 0
-13.2 -14.7 0
-13.2 -14.4 0
-13.2 -14.1 0
-13.2 -13.8 0
-13.2 -13.5 0
-13.2 -13.2 0
-13.2 -12.9 0
-13.2 -12.6 0
-13.2 -12.3 0
-13.2 -12 0
-13.2 -11.7 0
-13.2 -11.4 0
-13.2 -11.1 0
-13.2 -10.8 0
-13.2 -10.5 0
-13.2 -10.2 0
-13.2 -9.9 0
-13.2 -9.6 0
-13.2 -9.3 0
-13.2 -9 0
-13.2 -8.7 0
-13.2 -8.4 0
-13.2 -8.1 0
-13.2 -7.8 0
-13.2 -7.5 0
-13.2 -7.2 0
-13.2 -6.9 0
-13.2 -6.6 0
-13.2 -6.3 0
-13.2 -6 0
-13.2 -5.7 0
-13.2 -5.4 0
-13.2 -5.1 0
-13.2 -4.8 0
-13.2 -4.5 0
-13.2 -4.2 0
-13.2 -3.9 0
-13.2 -3.6 0
-13.2 -3.3 0
-13.2 -3 0
-13.2 -2.7 0
-13.2 -2.4 0
-13.2 -2.1 0
-13.2 -1.8 0
-13.2 -1.5 0
-13.2 -1.2 0
-13.2 -0.9 0
-13.2 -0.6 0
-13.2 -0.3 0
-13.2 0 0
-13.2 0.3 0
-13.2 0.6 0
-13.2 0.9 0
-13.2 1.2 0
-13.2 1.5 0
-13.2 1.8 0
-13.2 2.1 0
-13.2 2.4 0
-13.2 2.7 0
-13.2 3 0
-13.2 3.3 0
-13.2 3.6 0
-13.2 3.9 0
-13.2 4.2 0
-13.2 4.5 0
-13.2 4.8 0
-13.2 5.1 0
-13.2 5.4 0
-13.2 5.7 0
-13.2 6 0
-13.2 6.3 0
-13.2 6.6 0
-13.2 6.9 0
-13.2 7.2 0
-13.2 7.5 0
-13.2 7.8 0
-13.2 8.1 0
-13.2 8.4 0
-13.2 8.7 0
-13.2 9 0
-13.2 9.3 0
-13.2 9.6 0
-13.2 9.9 0
-13.2 10.2 0
-13.2 10.5 0
-13.2 10.8 0
-13.2 11.1 0
-13.2 11.4 0
-13.2 11.7 0
-13.2 12 0
-13.2 12.3 0
-13.2 12.6 0
-13.2 12.9 0
-13.2 13.2 0
-13.2 13.5 0
-13.2 13.8 0
-13.2 14.1 0
-13.2 14.4 0
-13.2 14.7 0
-13.2 15 0
-12.9 -15 0
-12.9 -14.7 0
-12.9 -14.4 0
-12.9 -14.1 0
-12.9 -13.8 0
-12.9 -13.5 0
-12.9 -13.2 0
-12.9 -12.9 0
-12.9 -12.6 0
-12.9 -12.3 0
-12.9 -12 0
-12.9 -11.7 0
-12.9 -11.4 0
-12.9 -11.1 0
-12.9 -10.8 0
-12.9 -10.5 0
-12.9 -10.2 0
-12.9 -9.9 0
-12.9 -9.6 0
-12.9 -9.3 0
-12.9 -9 0
-12.9 -8.7 0
-12.9 -8.4 0
-12.9 -8.1 0
-12.9 -7.8 0
-12.9 -7.5 0
-12.9 -7.2 0
-12.9 -6.9 0
-12.9 -6.6 0
-12.9 -6.3 0
-12.9 -6 0
-12.9 -5.7 0
-12.9 -5.4 0
-12.9 -5.1 0
-12.9 -4.8 0
-12.9 -4.5 0
-12.9 -4.2 0
-12.9 -3.9 0
-12.9 -3.6 0
-12.9 -3.3 0
-12.9 -3 0
-12.9 -2.7 0
-12.9 -2.4 0
-12.9 -2.1 0
-12.9 -1.8 0
-12.9 -1.5 0
-12.9 -1.2 0
-12.9 -0.9 0
-12.9 -0.6 0
-12.9 -0.3 0
-12.9 0 0
-12.9 0.3 0
-12.9 0.6 0
-12.9 0.9 0
-12.9 1.2 0
-12.9 1.5 0
-12.9 1.8 0
-12.9 2.1 0
-12.9 2.4 0
-12.9 2.7 0
-12.9 3 0
-12.9 3.3 0
-12.9 3.6 0
-12.9 3.9 0
-12.9 4.2 0
-12.9 4.5 0
-12.9 4.8 0
-12.9 5.1 0
-12.9 5.4 0
-12.9 5.7 0
-12.9 6 0
-12.9 6.3 0
-12.9 6.6 0
-12.9 6.9 0
-12.9 7.2 0
-12.9 7.5 0
-12.9 7.8 0
-12.9 8.1 0
-12.9 8.4 0
-12.9 8.7 0
-12.9 9 0
[...]
            <PointData>
                <DataArray type="Float64" Name="c1" format="ascii">
0.000563337 0.000564006 0.000566013 0.000569355 0.00057403 0.00058003 0.000587351 0.000595983 0.000605914 0.000617134 0.000629626 0.000643374 0.000658356 0.000674551 0.000691931 0.000710468 0.000730126 0.00075087 0.000772657 0.00079544 0.000819168 0.000843784 0.000869227 0.000895429 0.000922316 0.000949809 0.000977824 0.00100627 0.00103504 0.00106405 0.00109317 0.00112231 0.00115132 0.0011801 0.00120852 0.00123644 0.00126373 0.00129025 0.00131587 0.00134046 0.00136388 0.00138599 0.00140668 0.00142581 0.00144328 0.00145898 0.00147281 0.00148467 0.0014945 0.00150224 0.00150782 0.00151121 0.00151239 0.00151136 0.00150811 0.00150267 0.00149508 0.00148539 0.00147366 0.00145997 0.0014444 0.00142707 0.00140807 0.00138753 0.00136558 0.00134235 0.00131796 0.00129257 0.00126632 0.00123935 0.00121181 0.00118382 0.00115555 0.00112712 0.00109866 0.00107031 0.00104219 0.00101441 0.000987087 0.000960328 0.000934233 0.000908894 0.000884397 0.000860823 0.000838247 0.000816736 0.000796353 0.000777155 0.000759193 0.000742512 0.000727155 0.000713158 0.000700553 0.000689368 0.000679628 0.000671353 0.000664559 0.000659261 0.00065547 0.000653192 0.000652432 
0.000563936 0.000564607 0.000566619 0.000569971 0.000574658 0.000580675 0.000588016 0.000596672 0.000606632 0.000617883 0.000630412 0.0006442 0.000659227 0.00067547 0.000692904 0.000711499 0.00073122 0.000752031 0.00077389 0.00079675 0.00082056 0.000845264 0.000870798 0.000897097 0.000924086 0.000951685 0.00097981 0.00100837 0.00103726 0.00106639 0.00109564 0.0011249 0.00115405 0.00118297 0.00121152 0.00123957 0.00126699 0.00129365 0.0013194 0.00134412 0.00136766 0.00138989 0.00141069 0.00142993 0.0014475 0.00146329 0.00147719 0.00148913 0.00149902 0.0015068 0.00151242 0.00151584 0.00151703 0.00151599 0.00151273 0.00150726 0.00149963 0.00148989 0.00147809 0.00146432 0.00144868 0.00143125 0.00141215 0.0013915 0.00136943 0.00134608 0.00132157 0.00129605 0.00126967 0.00124256 0.00121488 0.00118676 0.00115836 0.00112979 0.00110121 0.00107273 0.00104448 0.00101658 0.000989144 0.000962274 0.000936073 0.000910631 0.000886038 0.000862373 0.000839711 0.00081812 0.000797663 0.000778395 0.000760369 0.00074363 0.00072822 0.000714175 0.000701527 0.000690305 0.000680533 0.00067223 0.000665414 0.0006601 0.000656296 0.000654011 0.000653248 
0.000565733 0.000566409 0.000568438 0.000571817 0.000576542 0.000582609 0.000590011 0.000598739 0.000608783 0.000620131 0.000632768 0.000646677 0.000661838 0.000678229 0.000695823 0.000714592 0.000734501 0.000755515 0.000777591 0.000800683 0.000824739 0.000849704 0.000875515 0.000902104 0.000929398 0.000957317 0.000985775 0.00101468 0.00104393 0.00107343 0.00110306 0.00113271 0.00116225 0.00119156 0.00122052 0.00124898 0.0012768 0.00130386 0.00133001 0.00135511 0.00137902 0.00140161 0.00142275 0.00144232 0.00146018 0.00147624 0.00149039 0.00150254 0.00151261 0.00152053 0.00152626 0.00152974 0.00153097 0.00152992 0.00152662 0.00152107 0.00151331 0.00150341 0.00149142 0.00147743 0.00146153 0.00144382 0.00142441 0.00140344 0.00138102 0.00135729 0.0013324 0.0013065 0.00127971 0.00125221 0.00122412 0.0011956 0.00116679 0.00113783 0.00110885 0.00107999 0.00105137 0.00102311 0.000995322 0.000968117 0.000941595 0.000915848 0.000890965 0.000867027 0.000844107 0.000822275 0.000801592 0.000782116 0.000763898 0.000746984 0.000731414 0.000717225 0.00070445 0.000693115 0.000683246 0.000674861 0.000667979 0.000662613 0.000658772 0.000656465 0.000655695 
0.000568723 0.000569409 0.000571465 0.000574889 0.000579679 0.000585829 0.000593332 0.000602181 0.000612366 0.000623874 0.000636692 0.000650803 0.000666188 0.000682824 0.000700687 0.000719746 0.00073997 0.000761322 0.000783761 0.00080724 0.000831709 0.00085711 0.000883383 0.000910459 0.000938264 0.000966717 0.000995732 0.00102522 0.00105507 0.00108518 0.00111545 0.00114575 0.00117595 0.00120594 0.00123557 0.00126471 0.00129321 0.00132094 0.00134775 0.0013735 0.00139804 0.00142124 0.00144295 0.00146305 0.00148142 0.00149793 0.00151249 0.001525 0.00153537 0.00154354 0.00154944 0.00155305 0.00155432 0.00155327 0.00154988 0.00154419 0.00153624 0.00152607 0.00151376 0.00149939 0.00148306 0.00146487 0.00144495 0.00142341 0.00140041 0.00137607 0.00135054 0.00132397 0.00129652 0.00126834 0.00123957 0.00121037 0.00118088 0.00115125 0.00112162 0.00109212 0.00106287 0.00103401 0.00100564 0.000977871 0.000950812 0.000924555 0.000899186 0.000874789 0.000851439 0.000829203 0.000808144 0.00078832 0.000769781 0.000752572 0.000736736 0.000722307 0.000709318 0.000697796 0.000687764 0.000679243 0.00067225 0.000666797 0.000662895 0.000660551 0.000659769 
0.000572901 0.000573599 0.000575694 0.000579182 0.000584062 0.000590327 0.000597973 0.000606992 0.000617374 0.000629108 0.00064218 0.000656575 0.000672273 0.000689254 0.000707493 0.000726961 0.000747628 0.000769455 0.000792404 0.000816427 0.000841476 0.000867492 0.000894415 0.000922176 0.0009507 0.000979907 0.00100971 0.00104001 0.00107071 0.0011017 0.00113286 0.00116408 0.00119522 0.00122615 0.00125674 0.00128684 0.00131631 0.00134499 0.00137274 0.0013994 0.00142483 0.00144888 0.00147141 0.00149228 0.00151136 0.00152853 0.00154367 0.00155668 0.00156748 0.00157599 0.00158215 0.00158592 0.00158728 0.00158621 0.00158271 0.00157682 0.00156857 0.00155803 0.00154526 0.00153036 0.00151342 0.00149455 0.00147389 0.00145157 0.00142773 0.00140251 0.00137608 0.00134858 0.00132018 0.00129104 0.00126131 0.00123114 0.0012007 0.00117013 0.00113957 0.00110916 0.00107903 0.00104931 0.00102012 0.00099156 0.000963745 0.000936766 0.000910714 0.000885672 0.000861714 0.00083891 0.000817323 0.000797008 0.000778017 0.000760396 0.000744184 0.000729418 0.000716128 0.000704342 0.000694084 0.000685371 0.000678222 0.000672648 0.000668659 0.000666263 0.000665464 
0.000578258 0.000578972 0.000581116 0.000584687 0.000589682 0.000596098 0.000603928 0.000613165 0.000623801 0.000635825 0.000649225 0.000663986 0.000680089 0.000697515 0.00071624 0.000736236 0.000757473 0.000779915 0.000803523 0.000828251 0.000854049 0.000880862 0.000908627 0.000937275 0.000966732 0.000996916 0.00102774 0.0010591 0.0010909 0.00112302 0.00115535 0.00118776 0.00122012 0.00125229 0.00128413 0.00131549 0.0013462 0.00137613 0.00140511 0.00143297 0.00145957 0.00148474 0.00150834 0.00153021 0.00155022 0.00156824 0.00158414 0.00159782 0.00160918 0.00161814 0.00162464 0.00162864 0.00163009 0.001629 0.00162536 0.00161921 0.00161058 0.00159954 0.00158617 0.00157056 0.00155282 0.00153308 0.00151145 0.0014881 0.00146316 0.0014368 0.00140918 0.00138047 0.00135083 0.00132043 0.00128944 0.00125802 0.00122633 0.00119453 0.00116276 0.00113117 0.0010999 0.00106907 0.0010388 0.00100922 0.00098042 0.000952506 0.000925568 0.000899689 0.000874944 0.000851405 0.000829132 0.000808183 0.000788608 0.000770452 0.000753756 0.000738553 0.000724876 0.00071275 0.000702197 0.000693237 0.000685886 0.000680156 0.000676056 0.000673593 0.000672772 
0.000584782 0.000585517 0.000587721 0.000591393 0.00059653 0.000603129 0.000611184 0.000620689 0.000631637 0.000644018 0.00065782 0.000673029 0.000689629 0.000707601 0.000726923 0.000747568 0.000769506 0.000792705 0.000817123 0.000842718 0.000869441 0.000897234 0.000926037 0.000955781 0.00098639 0.00101778 0.00104986 0.00108254 0.00111569 0.00114922 0.001183 0.0012169 0.00125077 0.00128448 0.00131787 0.00135079 0.00138307 0.00141454 0.00144505 0.00147441 0.00150246 0.00152903 0.00155396 0.00157709 0.00159827 0.00161735 0.00163421 0.00164872 0.00166079 0.00167032 0.00167725 0.00168152 0.0016831 0.00168198 0.00167816 0.00167168 0.00166258 0.00165092 0.0016368 0.00162031 0.00160157 0.00158071 0.00155789 0.00153324 0.00150693 0.00147915 0.00145005 0.00141982 0.00138863 0.00135667 0.00132411 0.00129113 0.00125789 0.00122456 0.00119129 0.00115823 0.00112554 0.00109333 0.00106174 0.00103089 0.00100087 0.000971803 0.00094377 0.000916857 0.000891143 0.000866696 0.000843579 0.000821848 0.000801554 0.000782741 0.000765447 0.000749709 0.000735554 0.000723009 0.000712095 0.000702832 0.000695233 0.00068931 0.000685073 0.000682529 0.00068168 
0.00059246 0.000593219 0.000595495 0.000599286 0.000604591 0.000611407 0.000619729 0.000629552 0.00064087 0.000653673 0.000667952 0.000683694 0.000700885 0.000719506 0.000739537 0.000760953 0.000783727 0.000807825 0.00083321 0.000859839 0.000887663 0.000916627 0.00094667 0.000977723 0.00100971 0.00104254 0.00107614 0.00111038 0.00114518 0.00118039 0.00121591 0.00125159 0.00128729 0.00132285 0.00135811 0.00139291 0.00142708 0.00146043 0.00149279 0.00152396 0.00155378 0.00158205 0.0016086 0.00163326 0.00165585 0.00167623 0.00169426 0.00170979 0.00172271 0.00173294 0.00174039 0.00174499 0.00174673 0.00174558 0.00174155 0.00173466 0.00172498 0.00171257 0.00169753 0.00167997 0.00166001 0.00163781 0.00161351 0.0015873 0.00155933 0.00152981 0.00149892 0.00146685 0.00143379 0.00139994 0.00136549 0.00133062 0.00129551 0.00126033 0.00122526 0.00119044 0.00115604 0.00112218 0.00108899 0.00105661 0.00102514 0.00099469 0.000965346 0.000937199 0.000910324 0.000884794 0.000860669 0.000838006 0.000816854 0.000797257 0.000779253 0.000762876 0.000748153 0.00073511 0.000723767 0.000714142 0.000706248 0.000700098 0.000695698 0.000693056 0.000692175 
0.000601276 0.000602062 0.00060442 0.00060835 0.00061385 0.000620917 0.000629548 0.00063974 0.000651485 0.000664779 0.000679611 0.000695971 0.000713846 0.000733221 0.000754075 0.000776388 0.000800133 0.000825278 0.000851788 0.000879621 0.00090873 0.00093906 0.000970552 0.00100313 0.00103673 0.00107126 0.00110662 0.00114271 0.00117942 0.00121663 0.00125419 0.00129197 0.00132982 0.00136757 0.00140504 0.00144207 0.00147847 0.00151405 0.0015486 0.00158193 0.00161384 0.00164414 0.00167262 0.00169909 0.00172338 0.00174531 0.00176472 0.00178147 0.00179543 0.00180648 0.00181455 0.00181956 0.00182149 0.0018203 0.00181601 0.00180865 0.00179827 0.00178497 0.00176883 0.00174999 0.00172858 0.00170477 0.00167873 0.00165064 0.0016207 0.00158912 0.00155609 0.00152184 0.00148656 0.00145047 0.00141378 0.00137667 0.00133935 0.001302 0.0012648 0.00122791 0.00119149 0.00115568 0.00112063 0.00108646 0.00105328 0.00102121 0.000990329 0.000960736 0.000932506 0.00090571 0.000880409 0.000856659 0.000834507 0.000813998 0.000795167 0.000778046 0.000762663 0.000749041 0.000737199 0.000727153 0.000718918 0.000712502 0.000707914 0.000705158 0.00070424 
0.000611208 0.000612026 0.000614479 0.000618566 0.000624287 0.00063164 0.000640623 0.000651233 0.000663466 0.000677317 0.000692779 0.000709844 0.0007285 0.000748734 0.000770529 0.000793866 0.00081872 0.000845063 0.000872861 0.000902074 0.000932656 0.000964554 0.000997709 0.00103205 0.0010675 0.00110398 0.00114138 0.00117961 0.00121854 0.00125804 0.00129797 0.00133819 0.00137853 0.00141882 0.00145888 0.00149851 0.00153751 0.00157568 0.0016128 0.00164865 0.00168303 0.00171569 0.00174644 0.00177505 0.00180134 0.00182509 0.00184614 0.00186432 0.00187949 0.00189153 0.00190033 0.00190583 0.00190797 0.00190674 0.00190215 0.00189422 0.00188303 0.00186867 0.00185124 0.00183089 0.00180777 0.00178207 0.00175397 0.00172369 0.00169143 0.00165743 0.00162191 0.00158509 0.00154722 0.00150852 0.00146921 0.0014295 0.00138961 0.00134973 0.00131005 0.00127075 0.001232 0.00119394 0.00115673 0.00112049 0.00108534 0.00105139 0.00101875 0.000987494 0.000957706 0.000929456 0.000902805 0.000877808 0.000854511 0.000832956 0.000813178 0.000795207 0.000779069 0.000764784 0.000752373 0.000741847 0.000733221 0.000726502 0.000721698 0.000718814 0.000717853 
0.000622236 0.000623089 0.000625647 0.000629911 0.00063588 0.000643553 0.000652931 0.000664011 0.000676791 0.000691269 0.000707439 0.000725295 0.00074483 0.000766031 0.000788887 0.000813378 0.000839484 0.000867179 0.000896432 0.000927205 0.000959455 0.000993131 0.00102817 0.00106451 0.00110208 0.00114077 0.0011805 0.00122116 0.00126261 0.00130474 0.00134739 0.00139041 0.00143361 0.00147683 0.00151985 0.00156248 0.00160449 0.00164566 0.00168575 0.00172453 0.00176175 0.00179718 0.00183056 0.00186167 0.00189027 0.00191616 0.00193912 0.00195898 0.00197557 0.00198875 0.00199842 0.00200448 0.00200689 0.00200561 0.00200066 0.00199208 0.00197994 0.00196434 0.0019454 0.00192329 0.00189818 0.00187027 0.00183978 0.00180694 0.00177199 0.00173518 0.00169676 0.00165698 0.00161611 0.00157438 0.00153205 0.00148934 0.00144649 0.0014037 0.00136118 0.00131911 0.00127768 0.00123705 0.00119737 0.00115877 0.00112137 0.0010853 0.00105064 0.0010175 0.000985942 0.000956043 0.000927862 0.000901453 0.00087686 0.000854123 0.000833275 0.000814344 0.000797353 0.000782323 0.000769268 0.000758202 0.000749136 0.000742076 0.000737029 0.000734 0.00073299 
0.000634332 0.000635224 0.0006379 0.000642359 0.000648603 0.000656633 0.000666448 0.00067805 0.000691438 0.000706612 0.000723569 0.000742306 0.000762818 0.000785097 0.000809133 0.000834912 0.000862416 0.000891622 0.000922502 0.000955022 0.000989141 0.00102481 0.00106197 0.00110056 0.0011405 0.00118169 0.00122405 0.00126745 0.00131178 0.00135688 0.00140262 0.00144881 0.00149528 0.00154182 0.00158824 0.00163429 0.00167974 0.00172436 0.00176787 0.00181001 0.00185052 0.00188912 0.00192555 0.00195954 0.00199083 0.00201918 0.00204436 0.00206617 0.00208441 0.00209893 0.0021096 0.00211632 0.00211903 0.00211771 0.00211235 0.00210301 0.00208976 0.00207272 0.00205204 0.00202789 0.00200047 0.00197001 0.00193676 0.00190096 0.0018629 0.00182284 0.00178109 0.0017379 0.00169358 0.00164839 0.00160259 0.00155645 0.00151021 0.00146411 0.00141835 0.00137315 0.00132868 0.00128513 0.00124264 0.00120137 0.00116144 0.00112297 0.00108605 0.00105078 0.00101723 0.000985479 0.000955582 0.00092759 0.000901546 0.000877486 0.000855442 0.000835438 0.000817496 0.000801632 0.000787861 0.000776192 0.000766635 0.000759196 0.000753879 0.000750687 0.000749623 
0.000647469 0.000648404 0.000651208 0.000655882 0.000662429 0.000670849 0.000681146 0.000693322 0.000707379 0.000723319 0.000741143 0.000760851 0.000782441 0.00080591 0.000831251 0.000858453 0.000887503 0.000918383 0.000951068 0.000985528 0.00102172 0.00105961 0.00109914 0.00114023 0.00118282 0.00122681 0.00127211 0.0013186 0.00136614 0.0014146 0.00146381 0.00151359 0.00156375 0.00161407 0.00166433 0.00171427 0.00176365 0.00181219 0.0018596 0.00190559 0.00194986 0.00199211 0.00203204 0.00206934 0.00210373 0.00213493 0.00216267 0.00218673 0.00220688 0.00222295 0.00223479 0.00224228 0.00224534 0.00224396 0.00223813 0.00222791 0.00221339 0.00219469 0.00217199 0.00214549 0.00211541 0.00208201 0.00204556 0.00200637 0.00196474 0.00192097 0.00187539 0.00182831 0.00178005 0.0017309 0.00168117 0.00163113 0.00158105 0.00153119 0.00148177 0.00143301 0.00138513 0.00133828 0.00129265 0.00124839 0.00120561 0.00116445 0.00112499 0.00108735 0.00105159 0.00101777 0.000985965 0.000956213 0.000928557 0.00090303 0.00087966 0.000858468 0.000839472 0.000822687 0.000808122 0.000795788 0.000785689 0.00077783 0.000772214 0.000768844 0.00076772 
0.000661613 0.000662594 0.000665539 0.000670448 0.000677324 0.000686171 0.000696993 0.000709796 0.000724583 0.00074136 0.000760132 0.000780903 0.000803673 0.000828446 0.000855217 0.000883982 0.000914732 0.000947453 0.000982125 0.00101872 0.00105721 0.00109755 0.00113969 0.00118356 0.00122909 0.0012762 0.00132477 0.0013747 0.00142584 0.00147805 0.00153116 0.00158497 0.00163927 0.00169385 0.00174844 0.00180279 0.00185661 0.0019096 0.00196145 0.00201182 0.00206039 0.00210681 0.00215074 0.00219184 0.00222979 0.00226426 0.00229495 0.0023216 0.00234396 0.00236182 0.002375 0.00238338 0.00238686 0.00238542 0.00237905 0.00236782 0.00235183 0.00233122 0.0023062 0.00227699 0.00224385 0.00220707 0.00216697 0.00212389 0.00207817 0.00203016 0.00198022 0.0019287 0.00187596 0.00182233 0.00176813 0.00171368 0.00165927 0.00160517 0.00155163 0.00149889 0.00144716 0.00139664 0.0013475 0.00129988 0.00125394 0.00120978 0.00116752 0.00112724 0.00108902 0.00105292 0.00101901 0.000987312 0.000957878 0.000930735 0.000905905 0.000883406 0.000863252 0.000845455 0.00083002 0.000816954 0.000806261 0.000797942 0.000791999 0.000788433 0.000787244 
0.000676729 0.000677761 0.000680857 0.000686019 0.000693253 0.000702562 0.000713954 0.000727436 0.000743015 0.000760702 0.000780503 0.000802428 0.000826483 0.000852674 0.000881005 0.000911475 0.000944081 0.000978814 0.00101566 0.0010546 0.00109561 0.00113864 0.00118366 0.00123059 0.00127938 0.00132992 0.00138212 0.00143586 0.00149101 0.00154739 0.00160484 0.00166316 0.00172211 0.00178146 0.00184093 0.00190024 0.00195908 0.00201711 0.00207398 0.00212933 0.00218278 0.00223395 0.00228245 0.00232789 0.00236991 0.00240813 0.00244222 0.00247186 0.00249676 0.00251667 0.00253141 0.00254081 0.00254478 0.00254327 0.00253628 0.00252389 0.00250621 0.00248341 0.00245572 0.0024234 0.00238675 0.00234611 0.00230183 0.0022543 0.00220391 0.00215107 0.00209618 0.00203962 0.00198181 0.0019231 0.00186387 0.00180445 0.00174516 0.0016863 0.00162815 0.00157096 0.00151495 0.00146032 0.00140727 0.00135594 0.00130649 0.00125902 0.00121365 0.00117047 0.00112954 0.00109093 0.00105469 0.00102087 0.000989488 0.000960574 0.000934147 0.00091022 0.000888802 0.000869899 0.000853516 0.000839653 0.000828312 0.000819492 0.000813193 0.000809413 0.000808154 
0.000692776 0.000693862 0.000697122 0.000702558 0.000710176 0.000719983 0.000731988 0.000746202 0.000762636 0.000781303 0.000802217 0.000825389 0.000850834 0.000878561 0.000908582 0.000940901 0.000975523 0.00101245 0.00105166 0.00109316 0.00113691 0.00118289 0.00123106 0.00128135 0.0013337 0.00138803 0.00144424 0.0015022 0.00156177 0.00162278 0.00168506 0.00174839 0.00181253 0.00187722 0.00194216 0.00200705 0.00207153 0.00213524 0.00219779 0.00225877 0.00231776 0.00237434 0.00242804 0.00247845 0.00252512 0.00256764 0.00260562 0.00263868 0.0026665 0.00268879 0.00270532 0.00271591 0.00272044 0.00271885 0.00271116 0.00269744 0.00267782 0.00265251 0.00262176 0.00258587 0.0025452 0.00250013 0.00245108 0.00239848 0.00234279 0.00228445 0.00222393 0.00216168 0.00209812 0.0020337 0.00196879 0.00190379 0.00183904 0.00177487 0.00171156 0.00164941 0.00158863 0.00152946 0.00147207 0.00141664 0.00136331 0.0013122 0.00126341 0.00121704 0.00117314 0.00113179 0.00109302 0.00105686 0.00102336 0.000992516 0.000964351 0.000938871 0.00091608 0.000895978 0.000878565 0.000863839 0.000851796 0.000842433 0.000835748 0.000831738 0.000830401 
0.000709711 0.000710855 0.00071429 0.000720019 0.000728048 0.000738389 0.000751052 0.000766051 0.000783402 0.000803122 0.00082523 0.000849744 0.000876684 0.000906066 0.000937909 0.000972224 0.00100902 0.00104832 0.0010901 0.00113437 0.00118111 0.0012303 0.0012819 0.00133586 0.00139212 0.0014506 0.0015112 0.0015738 0.00163825 0.00170439 0.00177202 0.00184092 0.00191083 0.00198147 0.00205252 0.00212365 0.00219446 0.00226457 0.00233353 0.00240088 0.00246616 0.00252886 0.00258849 0.00264455 0.00269654 0.00274398 0.00278642 0.00282341 0.00285459 0.00287962 0.00289822 0.00291017 0.00291536 0.00291369 0.00290519 0.00288994 0.0028681 0.0028399 0.00280564 0.00276567 0.0027204 0.00267027 0.00261577 0.00255739 0.00249566 0.00243109 0.0023642 0.0022955 0.00222548 0.00215461 0.00208334 0.00201208 0.00194123 0.00187112 0.00180209 0.00173442 0.00166837 0.00160416 0.001542 0.00148205 0.00142446 0.00136935 0.00131682 0.00126696 0.00121983 0.00117548 0.00113395 0.00109527 0.00105945 0.00102652 0.000996475 0.000969315 0.000945039 0.000923642 0.000905119 0.000889461 0.000876661 0.000866714 0.000859613 0.000855354 0.000853935 