<?xml version="1.0"?>
<VTKFile type="StructuredGrid" version="0.1">
    <StructuredGrid WholeExtent="0 100 0 100 0 0">
        <Piece Extent="0 100 0 100 0 0">
            <Points>
                <DataArray type="Float64" NumberOfComponents="3" format="ascii">
-15 -15 0
-15 -14.7 0
-15 -14.4 0
-15 -14.1 0
-15 -13.8 0
-15 -13.5 0
-15 -13.2 0
-15 -12.9 0
-15 -12.6 0
-15 -12.3 0
-15 -12 0
-15 -11.7 0
-15 -11.4 0
-15 -11.1 0
-15 -10.8 0
-15 -10.5 0
-15 -10.2 0
-15 -9.9 0
-15 -9.6 0
-15 -9.3 0
-15 -9 0
-15 -8.7 0
-15 -8.4 0
-15 -8.1 0
-15 -7.8 0
-15 -7.5 0
-15 -7.2 0
-15 -6.9 0
-15 -6.6 0
-15 -6.3 0
-15 -6 0
-15 -5.7 0
-15 -5.4 0
-15 -5.1 0
-15 -4.8 0
-15 -4.5 0
-15 -4.2 0
-15 -3.9 0
-15 -3.6 0
-15 -3.3 0
-15 -3 0
-15 -2.7 0
-15 -2.4 0
-15 -2.1 0
-15 -1.8 0
-15 -1.5 0
-15 -1.2 0
-15 -0.9 0
-15 -0.6 0
-15 -0.3 0
-15 0 0
-15 0.3 0
-15 0.6 0
-15 0.9 0
-15 1.2 0
-15 1.5 0
-15 1.8 0
-15 2.1 0
-15 2.4 0
-15 2.7 0
-15 3 0
-15 3.3 0
-15 3.6 0
-15 3.9 0
-15 4.2 0
-15 4.5 0
-15 4.8 0
-15 5.1 0
-15 5.4 0
-15 5.7 0
-15 6 0
-15 6.3 0
-15 6.6 0
-15 6.9 0
-15 7.2 0
-15 7.5 0
-15 7.8 0
-15 8.1 0
-15 8.4 0
-15 8.7 0
-15 9 0
-15 9.3 0
-15 9.6 0
-15 9.9 0
-15 10.2 0
-15 10.5 0
-15 10.8 0
-15 11.1 0
-15 11.4 0
-15 11.7 0
-15 12 0
-15 12.3 0
-15 12.6 0
-15 12.9 0
-15 13.2 0
-15 13.5 0
-15 13.8 0
-15 14.1 0
-15 14.4 0
-15 14.7 0
-15 15 0
-14.7 -15 0
-14.7 -14.7 0
-14.7 -14.4 0
-14.7 -14.1 0
-14.7 -13.8 0
-14.7 -13.5 0
-14.7 -13.2 0
-14.7 -12.9 0
-14.7 -12.6 0
-14.7 -12.3 0
-14.7 -12 0
-14.7 -11.7 0
-14.7 -11.4 0
-14.7 -11.1 0
-14.7 -10.8 0
-14.7 -10.5 0
-14.7 -10.2 0
-14.7 -9.9 0
-14.7 -9.6 0
-14.7 -9.3 0
-14.7 -9 0
-14.7 -8.7 0
-14.7 -8.4 0
-14.7 -8.1 0
-14.7 -7.8 0
-14.7 -7.5 0
-14.7 -7.2 0
-14.7 -6.9 0
-14.7 -6.6 0
-14.7 -6.3 0
-14.7 -6 0
-14.7 -5.7 0
-14.7 -5.4 0
-14.7 -5.1 0
-14.7 -4.8 0
-14.7 -4.5 0
-14.7 -4.2 0
-14.7 -3.9 0
-14.7 -3.6 0
-14.7 -3.3 0
-14.7 -3 0
-14.7 -2.7 0
-14.7 -2.4 0
-14.7 -2.1 0
-14.7 -1.8 0
-14.7 -1.5 0
-14.7 -1.2 0
-14.7 -0.9 0
-14.7 -0.6 0
-14.7 -0.3 0
-14.7 0 0
-14.7 0.3 0
-14.7 0.6 0
-14.7 0.9 0
-14.7 1.2 0
-14.7 1.5 0
-14.7 1.8 0
-14.7 2.1 0
-14.7 2.4 0
-14.7 2.7 0
-14.7 3 0
-14.7 3.3 0
-14.7 3.6 0
-14.7 3.9 0
-14.7 4.2 0
-14.7 4.5 0
-14.7 4.8 0
-14.7 5.1 0
-14.7 5.4 0
-14.7 5.7 0
-14.7 6 0
-14.7 6.3 0
-14.7 6.6 0
-14.7 6.9 0
-14.7 7.2 0
-14.7 7.5 0
-14.7 7.8 0
-14.7 8.1 0
-14.7 8.4 0
-14.7 8.7 0
-14.7 9 0
-14.7 9.3 0
-14.7 9.6 0
-14.7 9.9 0
-14.7 10.2 0
-14.7 10.5 0
-14.7 10.8 0
-14.7 11.1 0
-14.7 11.4 0
-14.7 11.7 0
-14.7 12 0
-14.7 12.3 0
-14.7 12.6 0
-14.7 12.9 0
-14.7 13.2 0
-14.7 13.5 0
-14.7 13.8 0
-14.7 14.1 0
-14.7 14.4 0
-14.7 14.7 0
-14.7 15 0
-14.4 -15 0
-14.4 -14.7 0
-14.4 -14.4 0
-14.4 -14.1 0
-14.4 -13.8 0
-14.4 -13.5 0
-14.4 -13.2 0
-14.4 -12.9 0
-14.4 -12.6 0
-14.4 -12.3 0
-14.4 -12 0
-14.4 -11.7 0
-14.4 -11.4 0
-14.4 -11.1 0
-14.4 -10.8 0
-14.4 -10.5 0
-14.4 -10.2 0
-14.4 -9.9 0
-14.4 -9.6 0
-14.4 -9.3 0
-14.4 -9 0
-14.4 -8.7 0
-14.4 -8.4 0
-14.4 -8.1 0
-14.4 -7.8 0
-14.4 -7.5 0
-14.4 -7.2 0
-14.4 -6.9 0
-14.4 -6.6 0
-14.4 -6.3 0
-14.4 -6 0
-14.4 -5.7 0
-14.4 -5.4 0
-14.4 -5.1 0
-14.4 -4.8 0
-14.4 -4.5 0
-14.4 -4.2 0
-14.4 -3.9 0
-14.4 -3.6 0
-14.4 -3.3 0
-14.4 -3 0
-14.4 -2.7 0
-14.4 -2.4 0
-14.4 -2.1 0
-14.4 -1.8 0
-14.4 -1.5 0
-14.4 -1.2 0
-14.4 -0.9 0
-14.4 -0.6 0
-14.4 -0.3 0
-14.4 0 0
-14.4 0.3 0
-14.4 0.6 0
-14.4 0.9 0
-14.4 1.2 0
-14.4 1.5 0
-14.4 1.8 0
-14.4 2.1 0
-14.4 2.4 0
-14.4 2.7 0
-14.4 3 0
-14.4 3.3 0
-14.4 3.6 0
-14.4 3.9 0
-14.4 4.2 0
-14.4 4.5 0
-14.4 4.8 0
-14.4 5.1 0
-14.4 5.4 0
-14.4 5.7 0
-14.4 6 0
-14.4 6.3 0
-14.4 6.6 0
-14.4 6.9 0
-14.4 7.2 0
-14.4 7.5 0
-14.4 7.8 0
-14.4 8.1 0
-14.4 8.4 0
-14.4 8.7 0
-14.4 9 0
-14.4 9.3 0
-14.4 9.6 0
-14.4 9.9 0
-14.4 10.2 0
-14.4 10.5 0
-14.4 10.8 0
-14.4 11.1 0
-14.4 11.4 0
-14.4 11.7 0
-14.4 12 0
-14.4 12.3 0
-14.4 12.6 0
-14.4 12.9 0
-14.4 13.2 0
-14.4 13.5 0
-14.4 13.8 0
-14.4 14.1 0
-14.4 14.4 0
-14.4 14.7 0
-14.4 15 0
-14.1 -15 0
-14.1 -14.7 0
-14.1 -14.4 0
-14.1 -14.1 0
-14.1 -13.8 0
-14.1 -13.5 0
-14.1 -13.2 0
-14.1 -12.9 0
-14.1 -12.6 0
-14.1 -12.3 0
-14.1 -12 0
-14.1 -11.7 0
-14.1 -11.4 0
-14.1 -11.1 0
-14.1 -10.8 0
-14.1 -10.5 0
-14.1 -10.2 0
-14.1 -9.9 0
-14.1 -9.6 0
-14.1 -9.3 0
-14.1 -9 0
-14.1 -8.7 0
-14.1 -8.4 0
-14.1 -8.1 0
-14.1 -7.8 0
-14.1 -7.5 0
-14.1 -7.2 0
-14.1 -6.9 0
-14.1 -6.6 0
-14.1 -6.3 0
-14.1 -6 0
-14.1 -5.7 0
-14.1 -5.4 0
-14.1 -5.1 0
-14.1 -4.8 0
-14.1 -4.5 0
-14.1 -4.2 0
-14.1 -3.9 0
-14.1 -3.6 0
-14.1 -3.3 0
-14.1 -3 0
-14.1 -2.7 0
-14.1 -2.4 0
-14.1 -2.1 0
-14.1 -1.8 0
-14.1 -1.5 0
-14.1 -1.2 0
-14.1 -0.9 0
-14.1 -0.6 0
-14.1 -0.3 0
-14.1 0 0
-14.1 0.3 0
-14.1 0.6 0
-14.1 0.9 0
-14.1 1.2 0
-14.1 1.5 0
-14.1 1.8 0
-14.1 2.1 0
-14.1 2.4 0
-14.1 2.7 0
-14.1 3 0
-14.1 3.3 0
-14.1 3.6 0
-14.1 3.9 0
-14.1 4.2 0
-14.1 4.5 0
-14.1 4.8 0
-14.1 5.1 0
-14.1 5.4 0
-14.1 5.7 0
-14.1 6 0
-14.1 6.3 0
-14.1 6.6 0
-14.1 6.9 0
-14.1 7.2 0
-14.1 7.5 0
-14.1 7.8 0
-14.1 8.1 0
-14.1 8.4 0
-14.1 8.7 0
-14.1 9 0
-14.1 9.3 0
-14.1 9.6 0
-14.1 9.9 0
-14.1 10.2 0
-14.1 10.5 0
-14.1 10.8 0
-14.1 11.1 0
-14.1 11.4 0
-14.1 11.7 0
-14.1 12 0
-14.1 12.3 0
-14.1 12.6 0
-14.1 12.9 0
-14.1 13.2 0
-14.1 13.5 0
-14.1 13.8 0
-14.1 14.1 0
-14.1 14.4 0
-14.1 14.7 0
-14.1 15 0
-13.8 -15 0
-13.8 -14.7 0
-13.8 -14.4 0
-13.8 -14.1 0
-13.8 -13.8 0
-13.8 -13.5 0
-13.8 -13.2 0
-13.8 -12.9 0
-13.8 -12.6 0
-13.8 -12.3 0
-13.8 -12 0
-13.8 -11.7 0
-13.8 -11.4 0
-13.8 -11.1 0
-13.8 -10.8 0
-13.8 -10.5 0
-13.8 -10.2 0
-13.8 -9.9 0
-13.8 -9.6 0
-13.8 -9.3 0
-13.8 -9 0
-13.8 -8.7 0
-13.8 -8.4 0
-13.8 -8.1 0
-13.8 -7.8 0
-13.8 -7.5 0
-13.8 -7.2 0
-13.8 -6.9 0
-13.8 -6.6 0
-13.8 -6.3 0
-13.8 -6 0
-13.8 -5.7 0
-13.8 -5.4 0
-13.8 -5.1 0
-13.8 -4.8 0
-13.8 -4.5 0
-13.8 -4.2 0
-13.8 -3.9 0
-13.8 -3.6 0
-13.8 -3.3 0
-13.8 -3 0
-13.8 -2.7 0
-13.8 -2.4 0
-13.8 -2.1 0
-13.8 -1.8 0
-13.8 -1.5 0
-13.8 -1.2 0
-13.8 -0.9 0
-13.8 -0.6 0
-13.8 -0.3 0
-13.8 0 0
-13.8 0.3 0
-13.8 0.6 0
-13.8 0.9 0
-13.8 1.2 0
-13.8 1.5 0
-13.8 1.8 0
-13.8 2.1 0
-13.8 2.4 0
-13.8 2.7 0
-13.8 3 0
-13.8 3.3 0
-13.8 3.6 0
-13.8 3.9 0
-13.8 4.2 0
-13.8 4.5 0
-13.8 4.8 0
-13.8 5.1 0
-13.8 5.4 0
-13.8 5.7 0
-13.8 6 0
-13.8 6.3 0
-13.8 6.6 0
-13.8 6.9 0
-13.8 7.2 0
-13.8 7.5 0
-13.8 7.8 0
-13.8 8.1 0
-13.8 8.4 0
-13.8 8.7 0
-13.8 9 0
-13.8 9.3 0
-13.8 9.6 0
-13.8 9.9 0
-13.8 10.2 0
-13.8 10.5 0
-13.8 10.8 0
-13.8 11.1 0
-13.8 11.4 0
-13.8 11.7 0
-13.8 12 0
-13.8 12.3 0
-13.8 12.6 0
-13.8 12.9 0
-13.8 13.2 0
-13.8 13.5 0
-13.8 13.8 0
-13.8 14.1 0
-13.8 14.4 0
-13.8 14.7 0
-13.8 15 0
-13.5 -15 0
-13.5 -14.7 0
-13.5 -14.4 0
-13.5 -14.1 0
-13.5 -13.8 0
-13.5 -13.5 0
-13.5 -13.2 0
-13.5 -12.9 0
-13.5 -12.6 0
-13.5 -12.3 0
-13.5 -12 0
-13.5 -11.7 0
-13.5 -11.4 0
-13.5 -11.1 0
-13.5 -10.8 0
-13.5 -10.5 0
-13.5 -10.2 0
-13.5 -9.9 0
-13.5 -9.6 0
-13.5 -9.3 0
-13.5 -9 0
-13.5 -8.7 0
-13.5 -8.4 0
-13.5 -8.1 0
-13.5 -7.8 0
-13.5 -7.5 0
-13.5 -7.2 0
-13.5 -6.9 0
-13.5 -6.6 0
-13.5 -6.3 0
-13.5 -6 0
-13.5 -5.7 0
-13.5 -5.4 0
-13.5 -5.1 0
-13.5 -4.8 0
-13.5 -4.5 0
-13.5 -4.2 0
-13.5 -3.9 0
-13.5 -3.6 0
-13.5 -3.3 0
-13.5 -3 0
-13.5 -2.7 0
-13.5 -2.4 0
-13.5 -2.1 0
-13.5 -1.8 0
-13.5 -1.5 0
-13.5 -1.2 0
-13.5 -0.9 0
-13.5 -0.6 0
-13.5 -0.3 0
-13.5 0 0
-13.5 0.3 0
-13.5 0.6 0
-13.5 0.9 0
-13.5 1.2 0
-13.5 1.5 0
-13.5 1.8 0
-13.5 2.1 0
-13.5 2.4 0
-13.5 2.7 0
-13.5 3 0
-13.5 3.3 0
-13.5 3.6 0
-13.5 3.9 0
-13.5 4.2 0
-13.5 4.5 0
-13.5 4.8 0
-13.5 5.1 0
-13.5 5.4 0
-13.5 5.7 0
-13.5 6 0
-13.5 6.3 0
-13.5 6.6 0
-13.5 6.9 0
-13.5 7.2 0
-13.5 7.5 0
-13.5 7.8 0
-13.5 8.1 0
-13.5 8.4 0
-13.5 8.7 0
-13.5 9 0
-13.5 9.3 0
-13.5 9.6 0
-13.5 9.9 0
-13.5 10.2 0
-13.5 10.5 0
-13.5 10.8 0
-13.5 11.1 0
-13.5 11.4 0
-13.5 11.7 0
-13.5 12 0
-13.5 12.3 0
-13.5 12.6 0
-13.5 12.9 0
-13.5 13.2 0
-13.5 13.5 0
-13.5 13.8 0
-13.5 14.1 0
-13.5 14.4 0
-13.5 14.7 0
-13.5 15 0
-13.2 -15 0
-13.2 -14.7 0
-13.2 -14.4 0
-13.2 -14.1 0
-13.2 -13.8 0
-13.2 -13.5 0
-13.2 -13.2 0
-13.2 -12.9 0
-13.2 -12.6 0
-13.2 -12.3 0
-13.2 -12 0
-13.2 -11.7 0
-13.2 -11.4 0
-13.2 -11.1 0
-13.2 -10.8 0
-13.2 -10.5 0
-13.2 -10.2 0
-13.2 -9.9 0
-13.2 -9.6 0
-13.2 -9.3 0
-13.2 -9 0
-13.2 -8.7 0
-13.2 -8.4 0
-13.2 -8.1 0
-13.2 -7.8 0
-13.2 -7.5 0
-13.2 -7.2 0
-13.2 -6.9 0
-13.2 -6.6 0
-13.2 -6.3 0
-13.2 -6 0
-13.2 -5.7 0
-13.2 -5.4 0
-13.2 -5.1 0
-13.2 -4.8 0
-13.2 -4.5 0
-13.2 -4.2 0
-13.2 -3.9 0
-13.2 -3.6 0
-13.2 -3.3 0
-13.2 -3 0
-13.2 -2.7 0
-13.2 -2.4 0
-13.2 -2.1 0
-13.2 -1.8 0
-13.2 -1.5 0
-13.2 -1.2 0
-13.2 -0.9 0
-13.2 -0.6 0
-13.2 -0.3 0
-13.2 0 0
-13.2 0.3 0
-13.2 0.6 0
-13.2 0.9 0
-13.2 1.2 0
-13.2 1.5 0
-13.2 1.8 0
-13.2 2.1 0
-13.2 2.4 0
-13.2 2.7 0
-13.2 3 0
-13.2 3.3 0
-13.2 3.6 0
-13.2 3.9 0
-13.2 4.2 0
-13.2 4.5 0
-13.2 4.8 0
-13.2 5.1 0
-13.2 5.4 0
-13.2 5.7 0
-13.2 6 0
-13.2 6.3 0
-13.2 6.6 0
-13.2 6.9 0
-13.2 7.2 0
-13.2 7.5 0
-13.2 7.8 0
-13.2 8.1 0
-13.2 8.4 0
-13.2 8.7 0
-13.2 9 0
-13.2 9.3 0
-13.2 9.6 0
-13.2 9.9 0
-13.2 10.2 0
-13.2 10.5 0
-13.2 10.8 0
-13.2 11.1 0
-13.2 11.4 0
-13.2 11.7 0
-13.2 12 0
-13.2 12.3 0
-13.2 12.6 0
-13.2 12.9 0
-13.2 13.2 0
-13.2 13.5 0
-13.2 13.8 0
-13.2 14.1 0
-13.2 14.4 0
-13.2 14.7 0
-13.2 15 0
-12.9 -15 0
-12.9 -14.7 0
-12.9 -14.4 0
-12.9 -14.1 0
-12.9 -13.8 0
-12.9 -13.5 0
-12.9 -13.2 0
-12.9 -12.9 0
-12.9 -12.6 0
-12.9 -12.3 0
-12.9 -12 0
-12.9 -11.7 0
-12.9 -11.4 0
-12.9 -11.1 0
-12.9 -10.8 0
-12.9 -10.5 0
-12.9 -10.2 0
-12.9 -9.9 0
-12.9 -9.6 0
-12.9 -9.3 0
-12.9 -9 0
-12.9 -8.7 0
-12.9 -8.4 0
-12.9 -8.1 0
-12.9 -7.8 0
-12.9 -7.5 0
-12.9 -7.2 0
-12.9 -6.9 0
-12.9 -6.6 0
-12.9 -6.3 0
-12.9 -6 0
-12.9 -5.7 0
-12.9 -5.4 0
-12.9 -5.1 0
-12.9 -4.8 0
-12.9 -4.5 0
-12.9 -4.2 0
-12.9 -3.9 0
-12.9 -3.6 0
-12.9 -3.3 0
-12.9 -3 0
-12.9 -2.7 0
-12.9 -2.4 0
-12.9 -2.1 0
-12.9 -1.8 0
-12.9 -1.5 0
-12.9 -1.2 0
-12.9 -0.9 0
-12.9 -0.6 0
-12.9 -0.3 0
-12.9 0 0
-12.9 0.3 0
-12.9 0.6 0
-12.9 0.9 0
-12.9 1.2 0
-12.9 1.5 0
-12.9 1.8 0
-12.9 2.1 0
-12.9 2.4 0
-12.9 2.7 0
-12.9 3 0
-12.9 3.3 0
-12.9 3.6 0
-12.9 3.9 0
-12.9 4.2 0
-12.9 4.5 0
-12.9 4.8 0
-12.9 5.1 0
-12.9 5.4 0
-12.9 5.7 0
-12.9 6 0
-12.9 6.3 0
-12.9 6.6 0
-12.9 6.9 0
-12.9 7.2 0
-12.9 7.5 0
-12.9 7.8 0
-12.9 8.1 0
-12.9 8.4 0
-12.9 8.7 0
-12.9 9 0
[...]
            <PointData>
                <DataArray type="Float64" Name="c1" format="ascii">
5.03313e-07 5.11845e-07 5.37601e-07 5.81067e-07 6.43048e-07 7.24669e-07 8.27366e-07 9.52882e-07 1.10325e-06 1.2808e-06 1.48811e-06 1.72801e-06 2.00354e-06 2.31792e-06 2.67449e-06 3.0767e-06 3.52803e-06 4.03188e-06 4.59159e-06 5.21027e-06 5.89073e-06 6.63543e-06 7.44631e-06 8.32474e-06 9.27135e-06 1.0286e-05 1.13676e-05 1.25142e-05 1.37224e-05 1.49882e-05 1.63059e-05 1.76688e-05 1.90689e-05 2.04972e-05 2.19432e-05 2.33957e-05 2.48423e-05 2.627e-05 2.7665e-05 2.90133e-05 3.03006e-05 3.15127e-05 3.26358e-05 3.36566e-05 3.45629e-05 3.53434e-05 3.59883e-05 3.64892e-05 3.68397e-05 3.70352e-05 3.70731e-05 3.69529e-05 3.66761e-05 3.62465e-05 3.56695e-05 3.49527e-05 3.41052e-05 3.31375e-05 3.20615e-05 3.08901e-05 2.96367e-05 2.83155e-05 2.69407e-05 2.55266e-05 2.4087e-05 2.26353e-05 2.11843e-05 1.97458e-05 1.83306e-05 1.69485e-05 1.5608e-05 1.43164e-05 1.30798e-05 1.19031e-05 1.079e-05 9.74299e-06 8.7637e-06 7.85266e-06 7.00959e-06 6.23344e-06 5.52252e-06 4.87461e-06 4.28702e-06 3.75675e-06 3.28056e-06 2.85503e-06 2.47668e-06 2.14203e-06 1.84762e-06 1.59015e-06 1.36642e-06 1.17346e-06 1.00851e-06 8.69039e-07 7.52807e-07 6.57838e-07 5.8245e-07 5.25258e-07 4.85182e-07 4.61446e-07 4.53586e-07 
5.11845e-07 5.20528e-07 5.46745e-07 5.90987e-07 6.54079e-07 7.37165e-07 8.41712e-07 9.69497e-07 1.1226e-06 1.30339e-06 1.5145e-06 1.75882e-06 2.03946e-06 2.35969e-06 2.72295e-06 3.13275e-06 3.59264e-06 4.10612e-06 4.67659e-06 5.30723e-06 6.00095e-06 6.76025e-06 7.58713e-06 8.483e-06 9.44854e-06 1.04836e-05 1.15871e-05 1.2757e-05 1.39901e-05 1.5282e-05 1.6627e-05 1.80184e-05 1.94479e-05 2.09064e-05 2.23832e-05 2.38667e-05 2.53443e-05 2.68028e-05 2.8228e-05 2.96057e-05 3.09211e-05 3.21597e-05 3.33076e-05 3.4351e-05 3.52773e-05 3.60751e-05 3.67343e-05 3.72463e-05 3.76046e-05 3.78045e-05 3.78432e-05 3.77203e-05 3.74373e-05 3.69981e-05 3.64083e-05 3.56756e-05 3.48093e-05 3.38202e-05 3.27205e-05 3.15233e-05 3.02424e-05 2.88924e-05 2.74878e-05 2.6043e-05 2.45724e-05 2.30897e-05 2.16078e-05 2.01388e-05 1.86938e-05 1.72827e-05 1.59143e-05 1.4596e-05 1.3334e-05 1.21332e-05 1.09975e-05 9.92941e-06 8.9305e-06 8.00133e-06 7.14158e-06 6.35019e-06 5.6254e-06 4.96492e-06 4.36602e-06 3.82561e-06 3.34036e-06 2.9068e-06 2.52135e-06 2.18045e-06 1.88059e-06 1.61836e-06 1.39053e-06 1.19405e-06 1.02611e-06 8.84119e-07 7.65797e-07 6.69126e-07 5.92392e-07 5.34181e-07 4.93392e-07 4.69235e-07 4.61236e-07 
5.37601e-07 5.46745e-07 5.74349e-07 6.20939e-07 6.87384e-07 7.74899e-07 8.85036e-07 1.01968e-06 1.18103e-06 1.37161e-06 1.59421e-06 1.8519e-06 2.14797e-06 2.48592e-06 2.86939e-06 3.30214e-06 3.78793e-06 4.33052e-06 4.93354e-06 5.6004e-06 6.33421e-06 7.13768e-06 8.01298e-06 8.96166e-06 9.98448e-06 1.10814e-05 1.22512e-05 1.34919e-05 1.48e-05 1.6171e-05 1.75989e-05 1.90766e-05 2.05953e-05 2.21452e-05 2.37151e-05 2.52927e-05 2.68645e-05 2.84164e-05 2.99333e-05 3.13999e-05 3.28006e-05 3.41199e-05 3.53427e-05 3.64544e-05 3.74416e-05 3.82919e-05 3.89945e-05 3.95404e-05 3.99223e-05 4.01353e-05 4.01766e-05 4.00455e-05 3.97438e-05 3.92755e-05 3.86467e-05 3.78656e-05 3.69423e-05 3.58883e-05 3.47166e-05 3.34412e-05 3.20772e-05 3.06397e-05 2.91445e-05 2.7607e-05 2.60425e-05 2.44655e-05 2.28899e-05 2.13285e-05 1.97932e-05 1.82944e-05 1.68414e-05 1.54421e-05 1.41031e-05 1.28295e-05 1.16253e-05 1.04933e-05 9.435e-06 8.45094e-06 7.54074e-06 6.70321e-06 5.93645e-06 5.23797e-06 4.60484e-06 4.03374e-06 3.52112e-06 3.06324e-06 2.65632e-06 2.29654e-06 1.98017e-06 1.7036e-06 1.46337e-06 1.25626e-06 1.07926e-06 9.29662e-07 8.05022e-07 7.0321e-07 6.22408e-07 5.6112e-07 5.18179e-07 4.92749e-07 4.84328e-07 
5.81067e-07 5.90987e-07 6.20939e-07 6.71495e-07 7.43609e-07 8.38609e-07 9.58196e-07 1.10443e-06 1.27974e-06 1.48688e-06 1.72891e-06 2.0092e-06 2.33139e-06 2.69932e-06 3.11701e-06 3.58861e-06 4.11827e-06 4.71017e-06 5.36833e-06 6.09656e-06 6.89833e-06 7.77669e-06 8.73411e-06 9.77236e-06 1.08924e-05 1.20942e-05 1.33766e-05 1.47375e-05 1.61731e-05 1.76785e-05 1.92474e-05 2.08716e-05 2.2542e-05 2.42475e-05 2.59758e-05 2.77134e-05 2.94455e-05 3.11564e-05 3.28294e-05 3.44475e-05 3.59936e-05 3.74502e-05 3.88007e-05 4.00289e-05 4.11198e-05 4.20596e-05 4.28363e-05 4.34397e-05 4.3862e-05 4.40975e-05 4.4143e-05 4.3998e-05 4.36643e-05 4.31464e-05 4.24511e-05 4.15877e-05 4.05671e-05 3.94024e-05 3.8108e-05 3.66996e-05 3.51937e-05 3.36074e-05 3.19579e-05 3.02625e-05 2.85381e-05 2.68007e-05 2.50656e-05 2.33472e-05 2.16582e-05 2.00102e-05 1.84135e-05 1.68767e-05 1.54068e-05 1.40096e-05 1.26892e-05 1.14487e-05 1.02895e-05 9.21235e-06 8.21658e-06 7.30081e-06 6.4629e-06 5.70002e-06 5.00889e-06 4.38581e-06 3.82682e-06 3.32779e-06 2.88451e-06 2.49279e-06 2.14849e-06 1.84764e-06 1.58644e-06 1.36133e-06 1.16904e-06 1.00657e-06 8.71253e-07 7.60751e-07 6.73073e-07 6.06584e-07 5.60007e-07 5.32427e-07 5.23294e-07 
6.43048e-07 6.54079e-07 6.87384e-07 7.43609e-07 8.23823e-07 9.29522e-07 1.06262e-06 1.22544e-06 1.4207e-06 1.65151e-06 1.92135e-06 2.234e-06 2.59358e-06 3.00444e-06 3.47115e-06 3.9984e-06 4.59095e-06 5.25355e-06 5.9908e-06 6.80707e-06 7.70639e-06 8.69229e-06 9.76766e-06 1.09346e-05 1.21944e-05 1.3547e-05 1.49914e-05 1.65252e-05 1.81444e-05 1.98435e-05 2.16153e-05 2.3451e-05 2.53399e-05 2.72698e-05 2.92268e-05 3.11955e-05 3.3159e-05 3.50995e-05 3.6998e-05 3.88353e-05 4.05914e-05 4.22467e-05 4.3782e-05 4.51787e-05 4.64196e-05 4.74889e-05 4.83729e-05 4.90598e-05 4.95405e-05 4.98085e-05 4.98602e-05 4.96949e-05 4.93149e-05 4.87252e-05 4.79337e-05 4.69509e-05 4.57897e-05 4.44648e-05 4.2993e-05 4.1392e-05 3.9681e-05 3.78794e-05 3.6007e-05 3.40835e-05 3.21281e-05 3.01591e-05 2.8194e-05 2.62488e-05 2.43382e-05 2.24753e-05 2.06715e-05 1.89364e-05 1.72782e-05 1.57029e-05 1.42154e-05 1.28188e-05 1.15147e-05 1.03037e-05 9.185e-06 8.1569e-06 7.21684e-06 6.36155e-06 5.58722e-06 4.88961e-06 4.26415e-06 3.70615e-06 3.2108e-06 2.77332e-06 2.38904e-06 2.05344e-06 1.76223e-06 1.51139e-06 1.29722e-06 1.11635e-06 9.65768e-07 8.42845e-07 7.45343e-07 6.71423e-07 6.1965e-07 5.88998e-07 5.78849e-07 
7.24669e-07 7.37165e-07 7.74899e-07 8.38609e-07 9.29522e-07 1.04935e-06 1.2003e-06 1.38503e-06 1.60667e-06 1.86879e-06 2.1754e-06 2.53087e-06 2.93994e-06 3.40764e-06 3.93928e-06 4.54028e-06 5.2162e-06 5.97256e-06 6.81475e-06 7.74791e-06 8.77678e-06 9.90556e-06 1.11377e-05 1.24759e-05 1.39216e-05 1.5475e-05 1.71353e-05 1.88995e-05 2.07635e-05 2.27209e-05 2.47637e-05 2.68817e-05 2.90627e-05 3.12926e-05 3.35554e-05 3.58332e-05 3.81066e-05 4.03546e-05 4.25554e-05 4.46863e-05 4.67242e-05 4.8646e-05 5.04292e-05 5.20521e-05 5.34945e-05 5.47378e-05 5.57657e-05 5.65647e-05 5.71238e-05 5.74356e-05 5.74957e-05 5.73032e-05 5.68609e-05 5.61747e-05 5.52539e-05 5.41109e-05 5.27608e-05 5.12209e-05 4.95108e-05 4.76516e-05 4.56655e-05 4.35753e-05 4.14041e-05 3.9175e-05 3.69103e-05 3.46314e-05 3.23584e-05 3.01101e-05 2.79034e-05 2.57532e-05 2.36729e-05 2.16734e-05 1.97638e-05 1.79513e-05 1.62411e-05 1.46366e-05 1.31396e-05 1.17506e-05 1.04684e-05 9.29101e-06 8.21527e-06 7.23729e-06 6.35256e-06 5.55607e-06 4.84249e-06 4.20633e-06 3.64199e-06 3.14393e-06 2.70672e-06 2.32514e-06 1.99424e-06 1.70938e-06 1.46629e-06 1.26111e-06 1.09036e-06 9.51027e-07 8.40551e-07 7.5682e-07 6.98188e-07 6.6348e-07 6.51989e-07 
8.27366e-07 8.41712e-07 8.85036e-07 9.58196e-07 1.06262e-06 1.2003e-06 1.37379e-06 1.58621e-06 1.84119e-06 2.14291e-06 2.49603e-06 2.90568e-06 3.3774e-06 3.91711e-06 4.53101e-06 5.22553e-06 6.0072e-06 6.88256e-06 7.85801e-06 8.93969e-06 1.01333e-05 1.14438e-05 1.28755e-05 1.44317e-05 1.61143e-05 1.7924e-05 1.98595e-05 2.19181e-05 2.40948e-05 2.63825e-05 2.87719e-05 3.12512e-05 3.38063e-05 3.64208e-05 3.90757e-05 4.17502e-05 4.44213e-05 4.70645e-05 4.96537e-05 5.21622e-05 5.45625e-05 5.68274e-05 5.89298e-05 6.0844e-05 6.25459e-05 6.40134e-05 6.5227e-05 6.61704e-05 6.68307e-05 6.71989e-05 6.72697e-05 6.70422e-05 6.65196e-05 6.5709e-05 6.46215e-05 6.3272e-05 6.16784e-05 5.98615e-05 5.78447e-05 5.56529e-05 5.33128e-05 5.08514e-05 4.82962e-05 4.56744e-05 4.30125e-05 4.03357e-05 3.76679e-05 3.5031e-05 3.24448e-05 2.9927e-05 2.74928e-05 2.51551e-05 2.29244e-05 2.08088e-05 1.88143e-05 1.69447e-05 1.52019e-05 1.3586e-05 1.20958e-05 1.07284e-05 9.48015e-06 8.34625e-06 7.32129e-06 6.39929e-06 5.57391e-06 4.83864e-06 4.18687e-06 3.61207e-06 3.10784e-06 2.66808e-06 2.28696e-06 1.95908e-06 1.67944e-06 1.44353e-06 1.2473e-06 1.08726e-06 9.60403e-07 8.64286e-07 7.96998e-07 7.57172e-07 7.43988e-07 
9.52882e-07 9.69497e-07 1.01968e-06 1.10443e-06 1.22544e-06 1.38503e-06 1.58621e-06 1.83263e-06 2.12858e-06 2.47897e-06 2.88929e-06 3.3656e-06 3.91445e-06 4.54284e-06 5.25814e-06 6.06796e-06 6.98011e-06 8.00239e-06 9.14247e-06 1.04077e-05 1.18051e-05 1.33406e-05 1.50196e-05 1.6846e-05 1.88226e-05 2.09502e-05 2.32278e-05 2.56522e-05 2.8218e-05 3.09169e-05 3.37382e-05 3.66681e-05 3.96901e-05 4.27847e-05 4.59298e-05 4.91003e-05 5.22692e-05 5.54071e-05 5.84831e-05 6.1465e-05 6.432e-05 6.70152e-05 6.95185e-05 7.17987e-05 7.38268e-05 7.55761e-05 7.70231e-05 7.81482e-05 7.89358e-05 7.93749e-05 7.94592e-05 7.91876e-05 7.85639e-05 7.75968e-05 7.62997e-05 7.46905e-05 7.27909e-05 7.0626e-05 6.82238e-05 6.56147e-05 6.28303e-05 5.99034e-05 5.68668e-05 5.37532e-05 5.05941e-05 4.74196e-05 4.42582e-05 4.11358e-05 3.8076e-05 3.50995e-05 3.22242e-05 2.94653e-05 2.6835e-05 2.43425e-05 2.19947e-05 1.97959e-05 1.7748e-05 1.58509e-05 1.41028e-05 1.25002e-05 1.10385e-05 9.71176e-06 8.51353e-06 7.43654e-06 6.4732e-06 5.61571e-06 4.85617e-06 4.18683e-06 3.6001e-06 3.08874e-06 2.64587e-06 2.2651e-06 1.94055e-06 1.66689e-06 1.43939e-06 1.25392e-06 1.10697e-06 9.95659e-07 9.17754e-07 8.71652e-07 8.56391e-07 
1.10325e-06 1.1226e-06 1.18103e-06 1.27974e-06 1.4207e-06 1.60667e-06 1.84119e-06 2.12858e-06 2.47391e-06 2.88298e-06 3.36231e-06 3.91909e-06 4.5611e-06 5.29666e-06 6.13457e-06 7.08392e-06 8.15406e-06 9.35437e-06 1.06941e-05 1.21822e-05 1.38269e-05 1.56359e-05 1.76156e-05 1.97711e-05 2.21058e-05 2.46211e-05 2.73161e-05 3.01875e-05 3.32289e-05 3.6431e-05 3.97812e-05 4.32634e-05 4.68581e-05 5.05422e-05 5.42893e-05 5.80699e-05 6.18513e-05 6.55985e-05 6.92743e-05 7.284e-05 7.62561e-05 7.94829e-05 8.24813e-05 8.52139e-05 8.76453e-05 8.97431e-05 9.14791e-05 9.28291e-05 9.37742e-05 9.4301e-05 9.4402e-05 9.40758e-05 9.3327e-05 9.21661e-05 9.06096e-05 8.86791e-05 8.64009e-05 8.38057e-05 8.09275e-05 7.78027e-05 7.447e-05 7.09688e-05 6.73388e-05 6.36192e-05 5.9848e-05 5.60614e-05 5.22933e-05 4.85747e-05 4.49336e-05 4.13946e-05 3.79791e-05 3.47046e-05 3.15855e-05 2.86325e-05 2.58535e-05 2.3253e-05 2.08332e-05 1.85937e-05 1.65318e-05 1.46433e-05 1.29222e-05 1.13615e-05 9.95313e-06 8.6883e-06 7.55786e-06 6.55243e-06 5.66256e-06 4.87895e-06 4.19257e-06 3.59477e-06 3.07739e-06 2.63285e-06 2.25417e-06 1.93505e-06 1.66989e-06 1.45381e-06 1.28267e-06 1.15309e-06 1.06241e-06 1.00876e-06 9.91004e-07 
1.2808e-06 1.30339e-06 1.37161e-06 1.48688e-06 1.65151e-06 1.86879e-06 2.14291e-06 2.47897e-06 2.88298e-06 3.36184e-06 3.92329e-06 4.57586e-06 5.32884e-06 6.19217e-06 7.17633e-06 8.29226e-06 9.55116e-06 1.09643e-05 1.25429e-05 1.42978e-05 1.62392e-05 1.83762e-05 2.0717e-05 2.32679e-05 2.60334e-05 2.90155e-05 3.22136e-05 3.56241e-05 3.92399e-05 4.30501e-05 4.70402e-05 5.11911e-05 5.54799e-05 5.98791e-05 6.43575e-05 6.88794e-05 7.3406e-05 7.7895e-05 8.23017e-05 8.65793e-05 9.068e-05 9.45558e-05 9.81593e-05 0.000101445 0.00010437 0.000106894 0.000108984 0.000110609 0.000111747 0.000112381 0.000112503 0.00011211 0.000111207 0.000109809 0.000107935 0.000105611 0.00010287 9.97486e-05 9.62884e-05 9.25339e-05 8.85318e-05 8.433e-05 7.99766e-05 7.55189e-05 7.10029e-05 6.64719e-05 6.19667e-05 5.75245e-05 5.31786e-05 4.89584e-05 4.48889e-05 4.09911e-05 3.72815e-05 3.37728e-05 3.04738e-05 2.73896e-05 2.45223e-05 2.18711e-05 1.94324e-05 1.72007e-05 1.51687e-05 1.33276e-05 1.16677e-05 1.01782e-05 8.84809e-06 7.66602e-06 6.62064e-06 5.70079e-06 4.89567e-06 4.19495e-06 3.58892e-06 3.06854e-06 2.62553e-06 2.2524e-06 1.94252e-06 1.69011e-06 1.49028e-06 1.33902e-06 1.2332e-06 1.1706e-06 1.14988e-06 
1.48811e-06 1.5145e-06 1.59421e-06 1.72891e-06 1.92135e-06 2.1754e-06 2.49603e-06 2.88929e-06 3.36231e-06 3.92329e-06 4.58141e-06 5.34684e-06 6.23065e-06 7.2447e-06 8.40156e-06 9.71431e-06 1.11964e-05 1.28615e-05 1.47231e-05 1.67944e-05 1.90877e-05 2.16145e-05 2.43847e-05 2.74062e-05 3.0685e-05 3.42239e-05 3.80227e-05 4.20775e-05 4.63804e-05 5.09191e-05 5.56762e-05 6.06298e-05 6.57526e-05 7.1012e-05 7.63706e-05 8.17861e-05 8.72116e-05 9.25963e-05 9.78862e-05 0.000103025 0.000107954 0.000112617 0.000116954 0.00012091 0.000124433 0.000127476 0.000129995 0.000131955 0.000133327 0.000134092 0.000134239 0.000133764 0.000132676 0.000130989 0.000128729 0.000125927 0.000122624 0.000118864 0.000114698 0.00011018 0.000105367 0.000100318 9.50896e-05 8.97404e-05 8.43254e-05 7.88969e-05 7.35039e-05 6.81909e-05 6.29978e-05 5.79594e-05 5.31056e-05 4.84608e-05 4.40445e-05 3.98713e-05 3.59512e-05 3.22899e-05 2.88892e-05 2.57477e-05 2.28607e-05 2.02212e-05 1.78201e-05 1.56465e-05 1.36885e-05 1.1933e-05 1.03667e-05 8.97589e-06 7.74686e-06 6.66626e-06 5.72114e-06 4.89917e-06 4.18875e-06 3.57913e-06 3.06046e-06 2.62386e-06 2.26144e-06 1.96638e-06 1.73288e-06 1.55617e-06 1.43259e-06 1.3595e-06 1.3353e-06 
1.72801e-06 1.75882e-06 1.8519e-06 2.0092e-06 2.234e-06 2.53087e-06 2.90568e-06 3.3656e-06 3.91909e-06 4.57586e-06 5.34684e-06 6.24412e-06 7.28088e-06 8.47129e-06 9.83037e-06 1.13738e-05 1.31178e-05 1.50787e-05 1.72729e-05 1.97163e-05 2.24241e-05 2.54103e-05 2.86871e-05 3.22647e-05 3.61505e-05 4.03485e-05 4.48593e-05 4.96787e-05 5.47979e-05 6.02028e-05 6.58734e-05 7.17838e-05 7.79018e-05 8.4189e-05 9.06006e-05 9.7086e-05 0.000103589 0.000110048 0.000116399 0.000122573 0.0001285 0.000134109 0.00013933 0.000144096 0.000148342 0.00015201 0.000155048 0.000157412 0.000159068 0.000159991 0.000160168 0.000159595 0.000158281 0.000156246 0.000153519 0.00015014 0.000146158 0.000141627 0.00013661 0.000131173 0.000125384 0.000119315 0.000113036 0.000106616 0.000100123 9.36191e-05 8.71636e-05 8.08096e-05 7.46049e-05 6.85908e-05 6.28024e-05 5.72688e-05 5.20125e-05 4.70505e-05 4.23939e-05 3.80489e-05 3.40173e-05 3.02964e-05 2.68802e-05 2.37598e-05 2.09239e-05 1.8359e-05 1.60505e-05 1.39827e-05 1.21392e-05 1.05037e-05 9.05953e-06 7.79079e-06 6.68197e-06 5.71832e-06 4.88603e-06 4.17229e-06 3.56541e-06 3.05484e-06 2.63125e-06 2.28653e-06 2.01384e-06 1.80755e-06 1.66331e-06 1.578e-06 1.54978e-06 
2.00354e-06 2.03946e-06 2.14797e-06 2.33139e-06 2.59358e-06 2.93994e-06 3.3774e-06 3.91445e-06 4.5611e-06 5.32884e-06 6.23065e-06 7.28088e-06 8.49523e-06 9.89056e-06 1.14848e-05 1.32968e-05 1.53458e-05 1.76518e-05 2.02342e-05 2.31126e-05 2.63054e-05 2.98297e-05 3.37006e-05 3.79309e-05 4.253e-05 4.75037e-05 5.28532e-05 5.85745e-05 6.46579e-05 7.10871e-05 7.78393e-05 8.48841e-05 9.21835e-05 9.96921e-05 0.000107357 0.000115117 0.000122905 0.000130648 0.000138267 0.00014568 0.000152802 0.000159546 0.000165828 0.000171565 0.00017668 0.0001811 0.000184762 0.000187613 0.00018961 0.000190723 0.000190936 0.000190244 0.000188659 0.000186204 0.000182916 0.000178843 0.000174045 0.000168588 0.00016255 0.000156009 0.000149051 0.000141761 0.000134224 0.000126526 0.000118746 0.00011096 0.00010324 9.56481e-05 8.82418e-05 8.10702e-05 7.41748e-05 6.75895e-05 6.13406e-05 5.54475e-05 4.99228e-05 4.47731e-05 3.99994e-05 3.5598e-05 3.15611e-05 2.78773e-05 2.45323e-05 2.151e-05 1.87922e-05 1.636e-05 1.41935e-05 1.2273e-05 1.05786e-05 9.09124e-06 7.79232e-06 6.66429e-06 5.69071e-06 4.85635e-06 4.14735e-06 3.5512e-06 3.05687e-06 2.65477e-06 2.3368e-06 2.09634e-06 1.92825e-06 1.82886e-06 1.79598e-06 
2.31792e-06 2.35969e-06 2.48592e-06 2.69932e-06 3.00444e-06 3.40764e-06 3.91711e-06 4.54284e-06 5.29666e-06 6.19217e-06 7.2447e-06 8.47129e-06 9.89056e-06 1.15226e-05 1.33887e-05 1.55114e-05 1.79139e-05 2.06198e-05 2.3653e-05 2.70369e-05 3.07938e-05 3.49448e-05 3.95086e-05 4.4501e-05 4.99342e-05 5.58159e-05 6.21485e-05 6.89283e-05 7.61447e-05 8.37795e-05 9.18062e-05 0.000100189 0.000108885 0.000117839 0.000126988 0.00013626 0.000145575 0.000154844 0.000163974 0.000172863 0.000181411 0.000189511 0.000197062 0.000203962 0.000210116 0.000215438 0.000219849 0.000223283 0.00022569 0.000227031 0.000227287 0.000226453 0.000224542 0.000221584 0.000217622 0.000212717 0.000206941 0.000200377 0.000193116 0.000185257 0.000176902 0.000168155 0.000159121 0.000149901 0.000140591 0.000131284 0.000122064 0.000113007 0.00010418 9.56416e-05 8.74409e-05 7.96172e-05 7.22011e-05 6.52146e-05 5.86718e-05 5.25795e-05 4.69379e-05 4.17416e-05 3.69804e-05 3.264e-05 2.87027e-05 2.51485e-05 2.19555e-05 1.91005e-05 1.65598e-05 1.43094e-05 1.23257e-05 1.05857e-05 9.06742e-06 7.74983e-06 6.61345e-06 5.64022e-06 4.81373e-06 4.11919e-06 3.54358e-06 3.07557e-06 2.70564e-06 2.42597e-06 2.23052e-06 2.11498e-06 2.07675e-06 
2.67449e-06 2.72295e-06 2.86939e-06 3.11701e-06 3.47115e-06 3.93928e-06 4.53101e-06 5.25814e-06 6.13456e-06 7.17633e-06 8.40156e-06 9.83037e-06 1.14848e-05 1.33887e-05 1.55675e-05 1.80478e-05 2.08574e-05 2.40248e-05 2.75785e-05 3.15468e-05 3.59568e-05 4.08341e-05 4.62019e-05 5.20798e-05 5.84835e-05 6.54231e-05 7.29027e-05 8.09193e-05 8.94616e-05 9.8509e-05 0.000108031 0.000117988 0.000128326 0.000138983 0.000149885 0.000160944 0.000172066 0.000183145 0.000194066 0.000204711 0.000214954 0.000224671 0.000233733 0.000242021 0.000249418 0.000255816 0.000261122 0.000265256 0.000268152 0.000269767 0.000270074 0.00026907 0.000266769 0.000263207 0.00025844 0.000252541 0.000245596 0.000237709 0.00022899 0.00021956 0.000209542 0.000199064 0.000188251 0.000177226 0.000166105 0.000154998 0.000144007 0.000133221 0.000122721 0.000112575 0.000102842 9.35661e-05 8.47834e-05 7.65187e-05 6.87874e-05 6.15961e-05 5.49441e-05 4.88237e-05 4.32216e-05 3.81198e-05 3.34966e-05 2.93273e-05 2.55852e-05 2.22425e-05 1.92704e-05 1.66402e-05 1.43238e-05 1.22936e-05 1.05234e-05 8.98844e-06 7.66551e-06 6.5333e-06 5.57239e-06 4.76537e-06 4.09688e-06 3.55363e-06 3.12438e-06 2.79998e-06 2.57333e-06 2.43936e-06 2.39504e-06 
3.0767e-06 3.13275e-06 3.30214e-06 3.58861e-06 3.9984e-06 4.54028e-06 5.22553e-06 6.06796e-06 7.08392e-06 8.29226e-06 9.71431e-06 1.13738e-05 1.32968e-05 1.55114e-05 1.80478e-05 2.09377e-05 2.42142e-05 2.79113e-05 3.20631e-05 3.67038e-05 4.18662e-05 4.75815e-05 5.3878e-05 6.07803e-05 6.83082e-05 7.64751e-05 8.52875e-05 9.47432e-05 0.00010483 0.000115527 0.000126797 0.000138596 0.000150861 0.000163519 0.000176481 0.000189647 0.000202901 0.000216117 0.00022916 0.000241884 0.00025414 0.000265775 0.000276637 0.000286576 0.000295453 0.000303136 0.000309511 0.000314478 0.00031796 0.000319901 0.00032027 0.000319062 0.000316295 0.000312014 0.000306285 0.000299198 0.000290861 0.000281397 0.000270944 0.000259646 0.000247655 0.000235123 0.000222204 0.000209044 0.000195784 0.000182556 0.000169479 0.000156661 0.000144198 0.000132169 0.000120642 0.000109671 9.92944e-05 8.95414e-05 8.04282e-05 7.19614e-05 6.41382e-05 5.69482e-05 5.03742e-05 4.43937e-05 3.89798e-05 3.41024e-05 2.97291e-05 2.58263e-05 2.23594e-05 1.92942e-05 1.65969e-05 1.4235e-05 1.21772e-05 1.03942e-05 8.85862e-06 7.54533e-06 6.43145e-06 5.49652e-06 4.72249e-06 4.09376e-06 3.59718e-06 3.22202e-06 2.95997e-06 2.8051e-06 2.75387e-06 