<?xml version="1.0"?>
<VTKFile type="StructuredGrid" version="0.1">
    <StructuredGrid WholeExtent="0 100 0 100 0 0">
        <Piece Extent="0 100 0 100 0 0">
            <Points>
                <DataArray type="Float64" NumberOfComponents="3" format="ascii">
-15 -15 0
-15 -14.7 0
-15 -14.4 0
-15 -14.1 0
-15 -13.8 0
-15 -13.5 0
-15 -13.2 0
-15 -12.9 0
-15 -12.6 0
-15 -12.3 0
-15 -12 0
-15 -11.7 0
-15 -11.4 0
-15 -11.1 0
-15 -10.8 0
-15 -10.5 0
-15 -10.2 0
-15 -9.9 0
-15 -9.6 0
-15 -9.3 0
-15 -9 0
-15 -8.7 0
-15 -8.4 0
-15 -8.1 0
-15 -7.8 0
-15 -7.5 0
-15 -7.2 0
-15 -6.9 0
-15 -6.6 0
-15 -6.3 0
-15 -6 0
-15 -5.7 0
-15 -5.4 0
-15 -5.1 0
-15 -4.8 0
-15 -4.5 0
-15 -4.2 0
-15 -3.9 0
-15 -3.6 0
-15 -3.3 0
-15 -3 0
-15 -2.7 0
-15 -2.4 0
-15 -2.1 0
-15 -1.8 0
-15 -1.5 0
-15 -1.2 0
-15 -0.9 0
-15 -0.6 0
-15 -0.3 0
-15 0 0
-15 0.3 0
-15 0.6 0
-15 0.9 0
-15 1.2 0
-15 1.5 0
-15 1.8 0
-15 2.1 0
-15 2.4 0
-15 2.7 0
-15 3 0
-15 3.3 0
-15 3.6 0
-15 3.9 0
-15 4.2 0
-15 4.5 0
-15 4.8 0
-15 5.1 0
-15 5.4 0
-15 5.7 0
-15 6 0
-15 6.3 0
-15 6.6 0
-15 6.9 0
-15 7.2 0
-15 7.5 0
-15 7.8 0
-15 8.1 0
-15 8.4 0
-15 8.7 0
-15 9 0
-15 9.3 0
-15 9.6 0
-15 9.9 0
-15 10.2 0
-15 10.5 0
-15 10.8 0
-15 11.1 0
-15 11.4 0
-15 11.7 0
-15 12 0
-15 12.3 0
-15 12.6 0
-15 12.9 0
-15 13.2 0
-15 13.5 0
-15 13.8 0
-15 14.1 0
-15 14.4 0
-15 14.7 0
-15 15 0
-14.7 -15 0
-14.7 -14.7 0
-14.7 -14.4 0
-14.7 -14.1 0
-14.7 -13.8 0
-14.7 -13.5 0
-14.7 -13.2 0
-14.7 -12.9 0
-14.7 -12.6 0
-14.7 -12.3 0
-14.7 -12 0
-14.7 -11.7 0
-14.7 -11.4 0
-14.7 -11.1 0
-14.7 -10.8 0
-14.7 -10.5 0
-14.7 -10.2 0
-14.7 -9.9 0
-14.7 -9.6 0
-14.7 -9.3 0
-14.7 -9 0
-14.7 -8.7 0
-14.7 -8.4 0
-14.7 -8.1 0
-14.7 -7.8 0
-14.7 -7.5 0
-14.7 -7.2 0
-14.7 -6.9 0
-14.7 -6.6 0
-14.7 -6.3 0
-14.7 -6 0
-14.7 -5.7 0
-14.7 -5.4 0
-14.7 -5.1 0
-14.7 -4.8 0
-14.7 -4.5 0
-14.7 -4.2 0
-14.7 -3.9 0
-14.7 -3.6 0
-14.7 -3.3 0
-14.7 -3 0
-14.7 -2.7 0
-14.7 -2.4 0
-14.7 -2.1 0
-14.7 -1.8 0
-14.7 -1.5 0
-14.7 -1.2 0
-14.7 -0.9 0
-14.7 -0.6 0
-14.7 -0.3 0
-14.7 0 0
-14.7 0.3 0
-14.7 0.6 0
-14.7 0.9 0
-14.7 1.2 0
-14.7 1.5 0
-14.7 1.8 0
-14.7 2.1 0
-14.7 2.4 0
-14.7 2.7 0
-14.7 3 0
-14.7 3.3 0
-14.7 3.6 0
-14.7 3.9 0
-14.7 4.2 0
-14.7 4.5 0
-14.7 4.8 0
-14.7 5.1 0
-14.7 5.4 0
-14.7 5.7 0
-14.7 6 0
-14.7 6.3 0
-14.7 6.6 0
-14.7 6.9 0
-14.7 7.2 0
-14.7 7.5 0
-14.7 7.8 0
-14.7 8.1 0
-14.7 8.4 0
-14.7 8.7 0
-14.7 9 0
-14.7 9.3 0
-14.7 9.6 0
-14.7 9.9 0
-14.7 10.2 0
-14.7 10.5 0
-14.7 10.8 0
-14.7 11.1 0
-14.7 11.4 0
-14.7 11.7 0
-14.7 12 0
-14.7 12.3 0
-14.7 12.6 0
-14.7 12.9 0
-14.7 13.2 0
-14.7 13.5 0
-14.7 13.8 0
-14.7 14.1 0
-14.7 14.4 0
-14.7 14.7 0
-14.7 15 0
-14.4 -15 0
-14.4 -14.7 0
-14.4 -14.4 0
-14.4 -14.1 0
-14.4 -13.8 0
-14.4 -13.5 0
-14.4 -13.2 0
-14.4 -12.9 0
-14.4 -12.6 0
-14.4 -12.3 0
-14.4 -12 0
-14.4 -11.7 0
-14.4 -11.4 0
-14.4 -11.1 0
-14.4 -10.8 0
-14.4 -10.5 0
-14.4 -10.2 0
-14.4 -9.9 0
-14.4 -9.6 0
-14.4 -9.3 0
-14.4 -9 0
-14.4 -8.7 0
-14.4 -8.4 0
-14.4 -8.1 0
-14.4 -7.8 0
-14.4 -7.5 0
-14.4 -7.2 0
-14.4 -6.9 0
-14.4 -6.6 0
-14.4 -6.3 0
-14.4 -6 0
-14.4 -5.7 0
-14.4 -5.4 0
-14.4 -5.1 0
-14.4 -4.8 0
-14.4 -4.5 0
-14.4 -4.2 0
-14.4 -3.9 0
-14.4 -3.6 0
-14.4 -3.3 0
-14.4 -3 0
-14.4 -2.7 0
-14.4 -2.4 0
-14.4 -2.1 0
-14.4 -1.8 0
-14.4 -1.5 0
-14.4 -1.2 0
-14.4 -0.9 0
-14.4 -0.6 0
-14.4 -0.3 0
-14.4 0 0
-14.4 0.3 0
-14.4 0.6 0
-14.4 0.9 0
-14.4 1.2 0
-14.4 1.5 0
-14.4 1.8 0
-14.4 2.1 0
-14.4 2.4 0
-14.4 2.7 0
-14.4 3 0
-14.4 3.3 0
-14.4 3.6 0
-14.4 3.9 0
-14.4 4.2 0
-14.4 4.5 0
-14.4 4.8 0
-14.4 5.1 0
-14.4 5.4 0
-14.4 5.7 0
-14.4 6 0
-14.4 6.3 0
-14.4 6.6 0
-14.4 6.9 0
-14.4 7.2 0
-14.4 7.5 0
-14.4 7.8 0
-14.4 8.1 0
-14.4 8.4 0
-14.4 8.7 0
-14.4 9 0
-14.4 9.3 0
-14.4 9.6 0
-14.4 9.9 0
-14.4 10.2 0
-14.4 10.5 0
-14.4 10.8 0
-14.4 11.1 0
-14.4 11.4 0
-14.4 11.7 0
-14.4 12 0
-14.4 12.3 0
-14.4 12.6 0
-14.4 12.9 0
-14.4 13.2 0
-14.4 13.5 0
-14.4 13.8 0
-14.4 14.1 0
-14.4 14.4 0
-14.4 14.7 0
-14.4 15 0
-14.1 -15 0
-14.1 -14.7 0
-14.1 -14.4 0
-14.1 -14.1 0
-14.1 -13.8 0
-14.1 -13.5 0
-14.1 -13.2 0
-14.1 -12.9 0
-14.1 -12.6 0
-14.1 -12.3 0
-14.1 -12 0
-14.1 -11.7 0
-14.1 -11.4 0
-14.1 -11.1 0
-14.1 -10.8 0
-14.1 -10.5 0
-14.1 -10.2 0
-14.1 -9.9 0
-14.1 -9.6 0
-14.1 -9.3 0
-14.1 -9 0
-14.1 -8.7 0
-14.1 -8.4 0
-14.1 -8.1 0
-14.1 -7.8 0
-14.1 -7.5 0
-14.1 -7.2 0
-14.1 -6.9 0
-14.1 -6.6 0
-14.1 -6.3 0
-14.1 -6 0
-14.1 -5.7 0
-14.1 -5.4 0
-14.1 -5.1 0
-14.1 -4.8 0
-14.1 -4.5 0
-14.1 -4.2 0
-14.1 -3.9 0
-14.1 -3.6 0
-14.1 -3.3 0
-14.1 -3 0
-14.1 -2.7 0
-14.1 -2.4 0
-14.1 -2.1 0
-14.1 -1.8 0
-14.1 -1.5 0
-14.1 -1.2 0
-14.1 -0.9 0
-14.1 -0.6 0
-14.1 -0.3 0
-14.1 0 0
-14.1 0.3 0
-14.1 0.6 0
-14.1 0.9 0
-14.1 1.2 0
-14.1 1.5 0
-14.1 1.8 0
-14.1 2.1 0
-14.1 2.4 0
-14.1 2.7 0
-14.1 3 0
-14.1 3.3 0
-14.1 3.6 0
-14.1 3.9 0
-14.1 4.2 0
-14.1 4.5 0
-14.1 4.8 0
-14.1 5.1 0
-14.1 5.4 0
-14.1 5.7 0
-14.1 6 0
-14.1 6.3 0
-14.1 6.6 0
-14.1 6.9 0
-14.1 7.2 0
-14.1 7.5 0
-14.1 7.8 0
-14.1 8.1 0
-14.1 8.4 0
-14.1 8.7 0
-14.1 9 0
-14.1 9.3 0
-14.1 9.6 0
-14.1 9.9 0
-14.1 10.2 0
-14.1 10.5 0
-14.1 10.8 0
-14.1 11.1 0
-14.1 11.4 0
-14.1 11.7 0
-14.1 12 0
-14.1 12.3 0
-14.1 12.6 0
-14.1 12.9 0
-14.1 13.2 0
-14.1 13.5 0
-14.1 13.8 0
-14.1 14.1 0
-14.1 14.4 0
-14.1 14.7 0
-14.1 15 0
-13.8 -15 0
-13.8 -14.7 0
-13.8 -14.4 0
-13.8 -14.1 0
-13.8 -13.8 0
-13.8 -13.5 0
-13.8 -13.2 0
-13.8 -12.9 0
-13.8 -12.6 0
-13.8 -12.3 0
-13.8 -12 0
-13.8 -11.7 0
-13.8 -11.4 0
-13.8 -11.1 0
-13.8 -10.8 0
-13.8 -10.5 0
-13.8 -10.2 0
-13.8 -9.9 0
-13.8 -9.6 0
-13.8 -9.3 0
-13.8 -9 0
-13.8 -8.7 0
-13.8 -8.4 0
-13.8 -8.1 0
-13.8 -7.8 0
-13.8 -7.5 0
-13.8 -7.2 0
-13.8 -6.9 0
-13.8 -6.6 0
-13.8 -6.3 0
-13.8 -6 0
-13.8 -5.7 0
-13.8 -5.4 0
-13.8 -5.1 0
-13.8 -4.8 0
-13.8 -4.5 0
-13.8 -4.2 0
-13.8 -3.9 0
-13.8 -3.6 0
-13.8 -3.3 0
-13.8 -3 0
-13.8 -2.7 0
-13.8 -2.4 0
-13.8 -2.1 0
-13.8 -1.8 0
-13.8 -1.5 0
-13.8 -1.2 0
-13.8 -0.9 0
-13.8 -0.6 0
-13.8 -0.3 0
-13.8 0 0
-13.8 0.3 0
-13.8 0.6 0
-13.8 0.9 0
-13.8 1.2 0
-13.8 1.5 0
-13.8 1.8 0
-13.8 2.1 0
-13.8 2.4 0
-13.8 2.7 0
-13.8 3 0
-13.8 3.3 0
-13.8 3.6 0
-13.8 3.9 0
-13.8 4.2 0
-13.8 4.5 0
-13.8 4.8 0
-13.8 5.1 0
-13.8 5.4 0
-13.8 5.7 0
-13.8 6 0
-13.8 6.3 0
-13.8 6.6 0
-13.8 6.9 0
-13.8 7.2 0
-13.8 7.5 0
-13.8 7.8 0
-13.8 8.1 0
-13.8 8.4 0
-13.8 8.7 0
-13.8 9 0
-13.8 9.3 0
-13.8 9.6 0
-13.8 9.9 0
-13.8 10.2 0
-13.8 10.5 0
-13.8 10.8 0
-13.8 11.1 0
-13.8 11.4 0
-13.8 11.7 0
-13.8 12 0
-13.8 12.3 0
-13.8 12.6 0
-13.8 12.9 0
-13.8 13.2 0
-13.8 13.5 0
-13.8 13.8 0
-13.8 14.1 0
-13.8 14.4 0
-13.8 14.7 0
-13.8 15 0
-13.5 -15 0
-13.5 -14.7 0
-13.5 -14.4 0
-13.5 -14.1 0
-13.5 -13.8 0
-13.5 -13.5 0
-13.5 -13.2 0
-13.5 -12.9 0
-13.5 -12.6 0
-13.5 -12.3 0
-13.5 -12 0
-13.5 -11.7 0
-13.5 -11.4 0
-13.5 -11.1 0
-13.5 -10.8 0
-13.5 -10.5 0
-13.5 -10.2 0
-13.5 -9.9 0
-13.5 -9.6 0
-13.5 -9.3 0
-13.5 -9 0
-13.5 -8.7 0
-13.5 -8.4 0
-13.5 -8.1 0
-13.5 -7.8 0
-13.5 -7.5 0
-13.5 -7.2 0
-13.5 -6.9 0
-13.5 -6.6 0
-13.5 -6.3 0
-13.5 -6 0
-13.5 -5.7 0
-13.5 -5.4 0
-13.5 -5.1 0
-13.5 -4.8 0
-13.5 -4.5 0
-13.5 -4.2 0
-13.5 -3.9 0
-13.5 -3.6 0
-13.5 -3.3 0
-13.5 -3 0
-13.5 -2.7 0
-13.5 -2.4 0
-13.5 -2.1 0
-13.5 -1.8 0
-13.5 -1.5 0
-13.5 -1.2 0
-13.5 -0.9 0
-13.5 -0.6 0
-13.5 -0.3 0
-13.5 0 0
-13.5 0.3 0
-13.5 0.6 0
-13.5 0.9 0
-13.5 1.2 0
-13.5 1.5 0
-13.5 1.8 0
-13.5 2.1 0
-13.5 2.4 0
-13.5 2.7 0
-13.5 3 0
-13.5 3.3 0
-13.5 3.6 0
-13.5 3.9 0
-13.5 4.2 0
-13.5 4.5 0
-13.5 4.8 0
-13.5 5.1 0
-13.5 5.4 0
-13.5 5.7 0
-13.5 6 0
-13.5 6.3 0
-13.5 6.6 0
-13.5 6.9 0
-13.5 7.2 0
-13.5 7.5 0
-13.5 7.8 0
-13.5 8.1 0
-13.5 8.4 0
-13.5 8.7 0
-13.5 9 0
-13.5 9.3 0
-13.5 9.6 0
-13.5 9.9 0
-13.5 10.2 0
-13.5 10.5 0
-13.5 10.8 0
-13.5 11.1 0
-13.5 11.4 0
-13.5 11.7 0
-13.5 12 0
-13.5 12.3 0
-13.5 12.6 0
-13.5 12.9 0
-13.5 13.2 0
-13.5 13.5 0
-13.5 13.8 0
-13.5 14.1 0
-13.5 14.4 0
-13.5 14.7 0
-13.5 15 0
-13.2 -15 0
-13.2 -14.7 0
-13.2 -14.4 0
-13.2 -14.1 0
-13.2 -13.8 0
-13.2 -13.5 0
-13.2 -13.2 0
-13.2 -12.9 0
-13.2 -12.6 0
-13.2 -12.3 0
-13.2 -12 0
-13.2 -11.7 0
-13.2 -11.4 0
-13.2 -11.1 0
-13.2 -10.8 0
-13.2 -10.5 0
-13.2 -10.2 0
-13.2 -9.9 0
-13.2 -9.6 0
-13.2 -9.3 0
-13.2 -9 0
-13.2 -8.7 0
-13.2 -8.4 0
-13.2 -8.1 0
-13.2 -7.8 0
-13.2 -7.5 0
-13.2 -7.2 0
-13.2 -6.9 0
-13.2 -6.6 0
-13.2 -6.3 0
-13.2 -6 0
-13.2 -5.7 0
-13.2 -5.4 0
-13.2 -5.1 0
-13.2 -4.8 0
-13.2 -4.5 0
-13.2 -4.2 0
-13.2 -3.9 0
-13.2 -3.6 0
-13.2 -3.3 0
-13.2 -3 0
-13.2 -2.7 0
-13.2 -2.4 0
-13.2 -2.1 0
-13.2 -1.8 0
-13.2 -1.5 0
-13.2 -1.2 0
-13.2 -0.9 0
-13.2 -0.6 0
-13.2 -0.3 0
-13.2 0 0
-13.2 0.3 0
-13.2 0.6 0
-13.2 0.9 0
-13.2 1.2 0
-13.2 1.5 0
-13.2 1.8 0
-13.2 2.1 0
-13.2 2.4 0
-13.2 2.7 0
-13.2 3 0
-13.2 3.3 0
-13.2 3.6 0
-13.2 3.9 0
-13.2 4.2 0
-13.2 4.5 0
-13.2 4.8 0
-13.2 5.1 0
-13.2 5.4 0
-13.2 5.7 0
-13.2 6 0
-13.2 6.3 0
-13.2 6.6 0
-13.2 6.9 0
-13.2 7.2 0
-13.2 7.5 0
-13.2 7.8 0
-13.2 8.1 0
-13.2 8.4 0
-13.2 8.7 0
-13.2 9 0
-13.2 9.3 0
-13.2 9.6 0
-13.2 9.9 0
-13.2 10.2 0
-13.2 10.5 0
-13.2 10.8 0
-13.2 11.1 0
-13.2 11.4 0
-13.2 11.7 0
-13.2 12 0
-13.2 12.3 0
-13.2 12.6 0
-13.2 12.9 0
-13.2 13.2 0
-13.2 13.5 0
-13.2 13.8 0
-13.2 14.1 0
-13.2 14.4 0
-13.2 14.7 0
-13.2 15 0
-12.9 -15 0
-12.9 -14.7 0
-12.9 -14.4 0
-12.9 -14.1 0
-12.9 -13.8 0
-12.9 -13.5 0
-12.9 -13.2 0
-12.9 -12.9 0
-12.9 -12.6 0
-12.9 -12.3 0
-12.9 -12 0
-12.9 -11.7 0
-12.9 -11.4 0
-12.9 -11.1 0
-12.9 -10.8 0
-12.9 -10.5 0
-12.9 -10.2 0
-12.9 -9.9 0
-12.9 -9.6 0
-12.9 -9.3 0
-12.9 -9 0
-12.9 -8.7 0
-12.9 -8.4 0
-12.9 -8.1 0
-12.9 -7.8 0
-12.9 -7.5 0
-12.9 -7.2 0
-12.9 -6.9 0
-12.9 -6.6 0
-12.9 -6.3 0
-12.9 -6 0
-12.9 -5.7 0
-12.9 -5.4 0
-12.9 -5.1 0
-12.9 -4.8 0
-12.9 -4.5 0
-12.9 -4.2 0
-12.9 -3.9 0
-12.9 -3.6 0
-12.9 -3.3 0
-12.9 -3 0
-12.9 -2.7 0
-12.9 -2.4 0
-12.9 -2.1 0
-12.9 -1.8 0
-12.9 -1.5 0
-12.9 -1.2 0
-12.9 -0.9 0
-12.9 -0.6 0
-12.9 -0.3 0
-12.9 0 0
-12.9 0.3 0
-12.9 0.6 0
-12.9 0.9 0
-12.9 1.2 0
-12.9 1.5 0
-12.9 1.8 0
-12.9 2.1 0
-12.9 2.4 0
-12.9 2.7 0
-12.9 3 0
-12.9 3.3 0
-12.9 3.6 0
-12.9 3.9 0
-12.9 4.2 0
-12.9 4.5 0
-12.9 4.8 0
-12.9 5.1 0
-12.9 5.4 0
-12.9 5.7 0
-12.9 6 0
-12.9 6.3 0
-12.9 6.6 0
-12.9 6.9 0
-12.9 7.2 0
-12.9 7.5 0
-12.9 7.8 0
-12.9 8.1 0
-12.9 8.4 0
-12.9 8.7 0
-12.9 9 0
[...]
            <PointData>
                <DataArray type="Float64" Name="c1" format="ascii">
0.00392344 0.00392796 0.00394149 0.00396406 0.00399565 0.00403626 0.0040859 0.00414457 0.00421225 0.00428895 0.00437465 0.00446934 0.00457299 0.00468557 0.00480704 0.00493736 0.00507646 0.00522425 0.00538065 0.00554553 0.00571877 0.00590019 0.0060896 0.00628677 0.00649144 0.0067033 0.00692198 0.00714707 0.00737806 0.00761436 0.00785529 0.00810002 0.00834757 0.00859677 0.00884623 0.00909438 0.00933947 0.00957969 0.00981334 0.0100389 0.0102554 0.010462 0.0106581 0.010843 0.0110157 0.0111751 0.01132 0.011449 0.0115608 0.0116542 0.011728 0.0117813 0.0118133 0.0118235 0.0118119 0.0117792 0.0117264 0.0116547 0.0115653 0.0114594 0.0113375 0.0112003 0.011048 0.0108808 0.010699 0.0105032 0.0102944 0.0100744 0.0098449 0.00960816 0.0093663 0.00912134 0.00887516 0.00862944 0.00838563 0.00814503 0.00790875 0.00767777 0.00745294 0.00723499 0.00702456 0.0068222 0.00662839 0.00644354 0.00626801 0.00610208 0.00594602 0.00580004 0.00566433 0.00553905 0.00542432 0.00532025 0.00522694 0.00514446 0.00507287 0.00501222 0.00496254 0.00492388 0.00489624 0.00487966 0.00487413 
0.00392479 0.0039293 0.00394286 0.00396544 0.00399707 0.00403773 0.00408742 0.00414616 0.00421392 0.00429071 0.00437651 0.00447131 0.00457508 0.00468781 0.00480944 0.00493994 0.00507923 0.00522724 0.00538388 0.00554902 0.00572254 0.00590428 0.00609404 0.0062916 0.0064967 0.00670904 0.00692825 0.00715393 0.00738558 0.00762264 0.00786441 0.00811009 0.00835872 0.00860913 0.00885994 0.00910953 0.00935609 0.00959771 0.00983255 0.010059 0.0102761 0.0104832 0.0106798 0.0108652 0.0110385 0.0111987 0.0113443 0.011474 0.0115865 0.0116805 0.011755 0.0118087 0.011841 0.0118512 0.0118394 0.0118062 0.0117528 0.0116804 0.0115905 0.011484 0.0113619 0.0112245 0.011072 0.0109045 0.0107221 0.0105255 0.0103157 0.0100943 0.0098634 0.0096252 0.00938191 0.00913563 0.00888823 0.00864139 0.00839657 0.00815505 0.00791794 0.00768621 0.00746069 0.00724211 0.00703111 0.00682824 0.00663395 0.00644867 0.00627274 0.00610646 0.00595008 0.00580381 0.00566785 0.00554233 0.0054274 0.00532315 0.00522968 0.00514706 0.00507535 0.0050146 0.00496484 0.00492612 0.00489844 0.00488183 0.00487629 
0.00392881 0.00393334 0.00394693 0.0039696 0.00400132 0.00404212 0.00409198 0.0041509 0.0042189 0.00429595 0.00438205 0.0044772 0.00458136 0.00469452 0.00481663 0.00494765 0.00508753 0.00523618 0.00539353 0.00555946 0.00573385 0.00591653 0.00610734 0.00630606 0.00651245 0.0067262 0.006947 0.00717445 0.00740808 0.00764737 0.00789166 0.00814021 0.00839209 0.00864617 0.00890109 0.00915512 0.00940627 0.00965225 0.00989081 0.01012 0.0103387 0.010547 0.0107449 0.0109319 0.0111071 0.0112694 0.0114173 0.0115493 0.0116639 0.0117599 0.0118361 0.0118914 0.0119247 0.011935 0.0119223 0.0118874 0.0118319 0.0117575 0.0116658 0.0115581 0.011435 0.0112971 0.0111441 0.0109758 0.010792 0.010593 0.0103798 0.0101544 0.00991905 0.00967638 0.00942877 0.00917846 0.00892736 0.00867717 0.00842932 0.00818506 0.00794547 0.00771147 0.00748389 0.00726344 0.00705074 0.0068463 0.00665061 0.00646404 0.00628694 0.00611959 0.00596225 0.00581512 0.00567837 0.00555216 0.00543661 0.00533181 0.00523786 0.00515483 0.00508277 0.00502172 0.00497173 0.00493282 0.00490501 0.00488832 0.00488276 
0.00393548 0.00394004 0.00395371 0.00397649 0.00400838 0.0040494 0.00409953 0.00415879 0.00422716 0.00430466 0.00439126 0.00448698 0.00459178 0.00470564 0.00482855 0.00496045 0.00510129 0.00525102 0.00540955 0.00557678 0.00575259 0.00593685 0.0061294 0.00633003 0.00653854 0.00675465 0.00697806 0.00720843 0.00744534 0.00768831 0.00793677 0.00819006 0.00844736 0.00870765 0.00896961 0.00923146 0.00949084 0.00974482 0.0099902 0.0102237 0.0104445 0.0106541 0.0108536 0.011043 0.0112215 0.0113876 0.0115394 0.0116752 0.0117935 0.0118928 0.0119722 0.0120304 0.0120657 0.0120764 0.012062 0.0120238 0.0119643 0.0118861 0.0117913 0.0116814 0.011557 0.0114185 0.0112652 0.0110961 0.0109101 0.010707 0.0104879 0.0102554 0.0100123 0.00976187 0.00950686 0.00924971 0.00899241 0.00873663 0.00848373 0.00823491 0.00799118 0.00775343 0.00752244 0.00729888 0.00708333 0.00687631 0.00667826 0.00648955 0.0063105 0.00614139 0.00598246 0.00583389 0.00569585 0.00556848 0.0054519 0.0053462 0.00525145 0.00516773 0.00509508 0.00503355 0.00498316 0.00494395 0.00491593 0.00489911 0.0048935 
0.00394477 0.00394936 0.00396313 0.00398608 0.00401821 0.00405953 0.00411004 0.00416975 0.00423866 0.00431677 0.00440408 0.00450058 0.00460627 0.00472112 0.00484513 0.00497825 0.00512044 0.00527165 0.00543181 0.00560084 0.00577864 0.00596509 0.00616004 0.00636332 0.00657476 0.00679412 0.00702115 0.00725555 0.00749697 0.00774503 0.00799925 0.00825911 0.00852396 0.00879302 0.0090652 0.00933881 0.00961108 0.00987789 0.0101348 0.0103743 0.0105958 0.0108053 0.011006 0.0111986 0.0113818 0.0115535 0.0117113 0.0118527 0.0119761 0.0120803 0.0121645 0.0122274 0.0122666 0.0122782 0.012261 0.0122168 0.0121505 0.0120661 0.0119667 0.0118536 0.0117277 0.0115891 0.0114365 0.0112676 0.0110793 0.0108704 0.0106423 0.0103987 0.0101439 0.00988187 0.00961606 0.00934913 0.00908307 0.00881944 0.0085595 0.00830433 0.00805485 0.00781188 0.00757613 0.00734823 0.00712873 0.00691811 0.00671678 0.00652508 0.00634332 0.00617175 0.00601059 0.00586001 0.00572018 0.0055912 0.00547318 0.00536622 0.00527036 0.00518568 0.00511222 0.00505001 0.00499907 0.00495943 0.00493111 0.00491411 0.00490845 
0.00395661 0.00396125 0.00397514 0.0039983 0.00403074 0.00407245 0.00412345 0.00418373 0.00425332 0.00433221 0.00442041 0.00451792 0.00462474 0.00474085 0.00486626 0.00500093 0.00514484 0.00529794 0.00546018 0.0056315 0.00581182 0.00600103 0.00619903 0.00640567 0.00662082 0.00684428 0.00707587 0.00731536 0.00756247 0.00781693 0.00807839 0.0083465 0.00862089 0.00890117 0.00918685 0.00947682 0.00976813 0.0100543 0.0103317 0.0105789 0.0107949 0.0110004 0.0112012 0.0113975 0.0115874 0.0117674 0.0119338 0.012083 0.012213 0.0123232 0.0124138 0.0124843 0.0125314 0.0125454 0.0125234 0.0124685 0.0123907 0.0122971 0.0121909 0.0120738 0.0119465 0.0118089 0.0116595 0.0114938 0.0113041 0.0110876 0.0108458 0.0105862 0.0103144 0.0100363 0.00975597 0.0094762 0.00919881 0.00892513 0.00865622 0.00839296 0.00813615 0.00788651 0.00764469 0.00741126 0.00718671 0.00697148 0.00676595 0.00657043 0.0063852 0.00621049 0.00604649 0.00589336 0.00575122 0.00562018 0.00550034 0.00539175 0.00529449 0.00520858 0.00513407 0.00507099 0.00501935 0.00497918 0.00495047 0.00493325 0.0049275 
0.00397094 0.00397563 0.00398968 0.0040131 0.0040459 0.00408808 0.00413966 0.00420065 0.00427105 0.00435089 0.00444016 0.00453889 0.00464707 0.00476471 0.00489181 0.00502835 0.00517433 0.00532971 0.00549446 0.00566853 0.00585188 0.00604442 0.00624607 0.00645675 0.00667634 0.00690471 0.00714175 0.0073873 0.00764119 0.00790326 0.00817329 0.00845113 0.00873667 0.00903012 0.00933209 0.00964335 0.00996246 0.0102736 0.0105948 0.0108519 0.0110413 0.0112363 0.0114356 0.0116374 0.0118371 0.0120295 0.0122086 0.012368 0.0125057 0.0126226 0.0127205 0.0128021 0.0128665 0.0128854 0.0128557 0.0127802 0.012684 0.0125771 0.0124624 0.0123404 0.0122116 0.0120767 0.0119352 0.0117808 0.011592 0.011366 0.0111023 0.0108198 0.0105242 0.0102245 0.00992561 0.00962997 0.00933884 0.00905305 0.00877332 0.00850031 0.00823466 0.00797696 0.00772779 0.00748764 0.00725696 0.00703614 0.00682552 0.00662537 0.00643594 0.00625741 0.00608996 0.00593372 0.00578879 0.00565526 0.00553319 0.00542265 0.00532367 0.00523629 0.00516052 0.00509638 0.00504389 0.00500306 0.00497389 0.00495639 0.00495056 
0.00398767 0.00399241 0.00400664 0.00403037 0.00406359 0.00410633 0.00415859 0.00422039 0.00429175 0.00437269 0.00446322 0.00456336 0.00467313 0.00479255 0.00492162 0.00506034 0.00520872 0.00536675 0.00553442 0.0057117 0.00589855 0.00609495 0.00630084 0.00651617 0.00674087 0.0069749 0.00721819 0.0074707 0.00773236 0.00800313 0.00828292 0.00857167 0.00886946 0.00917691 0.00949605 0.00983199 0.0101968 0.0105166 0.0108088 0.0110782 0.0113185 0.011503 0.011702 0.0119134 0.0121281 0.0123395 0.012539 0.012711 0.0128568 0.012979 0.0130823 0.013176 0.0132844 0.0133097 0.0132684 0.0131492 0.0130254 0.0129025 0.0127783 0.0126506 0.0125197 0.0123883 0.0122614 0.0121401 0.0119552 0.0117196 0.0114141 0.0111017 0.0107719 0.0104442 0.010123 0.00980897 0.00950205 0.00920236 0.00891015 0.00862583 0.00834987 0.00808277 0.007825 0.00757699 0.00733913 0.00711177 0.00689517 0.0066896 0.00649523 0.00631224 0.00614075 0.00598087 0.00583267 0.00569622 0.00557157 0.00545873 0.00535775 0.00526863 0.00519138 0.00512602 0.00507253 0.00503094 0.00500123 0.0049834 0.00497746 
0.00400669 0.0040115 0.00402594 0.00405 0.00408371 0.00412707 0.00418011 0.00424284 0.00431528 0.00439747 0.00448943 0.00459118 0.00470276 0.00482419 0.00495549 0.00509669 0.0052478 0.00540883 0.0055798 0.0057607 0.00595153 0.00615228 0.00636294 0.0065835 0.00681394 0.00705429 0.00730456 0.00756481 0.00783512 0.00811557 0.0084062 0.00870693 0.00901759 0.00933835 0.00967108 0.0100213 0.0103804 0.0106788 0.010925 0.011212 0.0115329 0.011788 0.0119886 0.0122186 0.0124558 0.012696 0.0129339 0.0131179 0.0132701 0.0133945 0.0134947 0.0135767 0.0136433 0.0136675 0.0136398 0.0135567 0.0134023 0.0132665 0.013135 0.0130015 0.0128658 0.0127332 0.0126206 0.0124625 0.0122731 0.0120498 0.0117707 0.0114377 0.0110524 0.0106907 0.010345 0.0100112 0.00968713 0.00937211 0.00906596 0.00876889 0.00848125 0.00820343 0.00793584 0.00767886 0.0074328 0.00719795 0.00697454 0.00676276 0.00656277 0.00637467 0.00619858 0.00603454 0.00588262 0.00574284 0.00561522 0.00549978 0.00539651 0.00530541 0.00522648 0.00515971 0.0051051 0.00506263 0.0050323 0.00501411 0.00500804 
0.00402789 0.00403278 0.00404744 0.00407189 0.00410614 0.0041502 0.0042041 0.00426786 0.00434151 0.00442509 0.00451864 0.00462218 0.00473577 0.00485944 0.00499322 0.00513717 0.00529131 0.00545568 0.00563032 0.00581524 0.00601047 0.00621603 0.00643196 0.00665827 0.00689501 0.00714226 0.00740012 0.00766879 0.00794849 0.00823952 0.0085421 0.00885611 0.00918069 0.00951414 0.00985615 0.0102162 0.0104949 0.0107769 0.011063 0.011369 0.0116936 0.0120254 0.0122755 0.0125472 0.0128115 0.0130878 0.0133245 0.0134874 0.013632 0.0137498 0.0138364 0.0138941 0.0139002 0.0139246 0.0139221 0.013921 0.013795 0.0136627 0.0135313 0.0133927 0.0132468 0.0130969 0.0129601 0.0127448 0.0125259 0.0122912 0.0120516 0.0117423 0.0113446 0.0109547 0.0105874 0.0102345 0.00989283 0.00956142 0.00924004 0.00892885 0.00862817 0.00833837 0.00805979 0.00779274 0.00753748 0.00729424 0.00706319 0.00684446 0.00663816 0.00644436 0.00626311 0.00609443 0.00593834 0.00579483 0.0056639 0.00554554 0.00543971 0.00534641 0.0052656 0.00519727 0.00514139 0.00509795 0.00506693 0.00504832 0.00504212 
0.00405115 0.00405612 0.00407103 0.0040959 0.00413073 0.00417556 0.0042304 0.00429529 0.00437027 0.00445538 0.00455066 0.00465617 0.00477196 0.00489808 0.00503459 0.00518154 0.005339 0.00550702 0.00568565 0.00587496 0.00607499 0.0062858 0.00650745 0.00673999 0.00698352 0.00723817 0.00750414 0.00778172 0.00807137 0.00837372 0.00868944 0.00901877 0.0093602 0.00970784 0.0100507 0.0103846 0.0106276 0.0109201 0.0112287 0.0115529 0.01189 0.0122306 0.0125919 0.0129111 0.0131832 0.0134755 0.013664 0.0138127 0.0139471 0.0140605 0.0141434 0.0141993 0.0142406 0.0142681 0.0142681 0.0142582 0.0141912 0.0140933 0.0139723 0.0138294 0.0136709 0.0135166 0.0132985 0.0130783 0.0128386 0.0125799 0.0123027 0.0119945 0.0116254 0.0112301 0.0108481 0.0104779 0.0101184 0.00976968 0.00943176 0.00910507 0.00879001 0.00848696 0.00819622 0.00791804 0.00765262 0.00740011 0.00716063 0.00693424 0.00672098 0.00652089 0.00633396 0.00616017 0.00599949 0.00585188 0.00571732 0.00559574 0.00548711 0.00539138 0.0053085 0.00523845 0.00518118 0.00513667 0.00510489 0.00508583 0.00507948 
0.00407631 0.00408137 0.00409656 0.00412188 0.00415735 0.00420301 0.00425887 0.00432499 0.0044014 0.00448816 0.00458532 0.00469295 0.00481111 0.00493988 0.00507933 0.00522953 0.00539057 0.00556253 0.00574548 0.00593952 0.00614472 0.00636117 0.00658896 0.00682817 0.00707894 0.00734141 0.00761585 0.00790266 0.00820251 0.0085165 0.00884625 0.00919372 0.00955932 0.00993349 0.010259 0.0105175 0.0107579 0.0110911 0.0114206 0.0117631 0.0121208 0.0124865 0.012892 0.0132398 0.0135592 0.0138215 0.0139951 0.0141627 0.0143084 0.0144312 0.0145255 0.0145999 0.0146631 0.0146904 0.0146587 0.0146304 0.0146397 0.0145836 0.0144733 0.0143212 0.0141307 0.0139238 0.0137079 0.0134703 0.0132082 0.0129242 0.0126205 0.0122987 0.0119292 0.011526 0.01113 0.0107423 0.0103641 0.00999659 0.0096406 0.00929691 0.00896608 0.0086485 0.00834445 0.0080541 0.00777759 0.00751498 0.00726631 0.00703158 0.00681076 0.00660383 0.00641072 0.00623137 0.00606571 0.00591366 0.00577514 0.00565008 0.0055384 0.00544003 0.00535492 0.00528299 0.00522422 0.00517854 0.00514594 0.00512639 0.00511988 
0.00410324 0.0041084 0.00412387 0.00414968 0.00418583 0.00423237 0.00428933 0.00435675 0.0044347 0.00452322 0.00462239 0.00473229 0.00485299 0.00498459 0.00512718 0.00528085 0.00544572 0.00562188 0.00580945 0.00600853 0.00621925 0.00644172 0.00667604 0.00692234 0.00718074 0.00745142 0.00773462 0.00803077 0.00834063 0.0086657 0.00900885 0.00937564 0.00977673 0.0101268 0.0104318 0.0106906 0.0109849 0.011307 0.0116375 0.0119944 0.0123743 0.0127682 0.0131647 0.0135341 0.0138781 0.0141263 0.0143308 0.0145466 0.0147179 0.0148616 0.0149836 0.0150846 0.0151778 0.0152264 0.0152303 0.0151843 0.0152157 0.0151673 0.0150569 0.0148924 0.0146784 0.0144052 0.0141783 0.0139226 0.0136348 0.0133231 0.0129905 0.0126416 0.0122636 0.0118492 0.0114369 0.0110296 0.0106305 0.010242 0.00986605 0.00950367 0.00915558 0.00882219 0.00850369 0.00820019 0.00791169 0.00763819 0.00737962 0.00713591 0.00690696 0.00669267 0.00649293 0.00630761 0.0061366 0.00597977 0.00583702 0.00570821 0.00559326 0.00549207 0.00540455 0.00533063 0.00527023 0.00522332 0.00518984 0.00516976 0.00516307 
0.00413177 0.00413703 0.00415281 0.00417913 0.00421601 0.00426348 0.0043216 0.00439041 0.00446997 0.00456037 0.00466167 0.00477397 0.00489736 0.00503195 0.00517786 0.00533521 0.00550412 0.00568473 0.00587718 0.00608161 0.00629817 0.006527 0.00676823 0.00702202 0.00728848 0.00756775 0.00786001 0.00816553 0.0084849 0.00881939 0.00917193 0.0095494 0.00994051 0.0102509 0.0105674 0.0108843 0.0112349 0.0115427 0.0118905 0.0122696 0.0126705 0.0130793 0.0134811 0.0138572 0.0141921 0.0144791 0.0147513 0.0149941 0.0151852 0.0153506 0.0154991 0.0156412 0.0157772 0.0158741 0.0159437 0.0159236 0.015918 0.0158575 0.0157403 0.015557 0.0153276 0.0150775 0.0147492 0.0144413 0.0141175 0.0137758 0.0134101 0.013005 0.0126315 0.0122053 0.0117729 0.0113418 0.010918 0.0105057 0.0101074 0.00972443 0.00935756 0.00900708 0.00867305 0.00835544 0.00805414 0.007769 0.00749989 0.00724661 0.007009 0.00678689 0.00658009 0.00638843 0.00621173 0.00604983 0.00590256 0.00576979 0.00565137 0.00554718 0.0054571 0.00538105 0.00531894 0.00527071 0.00523629 0.00521565 0.00520878 
0.00416172 0.00416709 0.00418319 0.00421005 0.00424769 0.00429615 0.00435549 0.00442575 0.00450702 0.00459938 0.00470291 0.00481773 0.00494395 0.00508169 0.00523108 0.00539228 0.00556544 0.00575072 0.00594829 0.00615833 0.00638103 0.00661655 0.00686508 0.00712677 0.00740175 0.00769011 0.00799189 0.0083071 0.00863575 0.0089781 0.00933507 0.00970885 0.010072 0.0104013 0.0107341 0.0110748 0.0114315 0.0117897 0.0121649 0.0125637 0.012983 0.0134145 0.0138308 0.0142188 0.0145587 0.0149062 0.0152418 0.0154946 0.015728 0.0158999 0.0160509 0.0162816 0.016471 0.0165898 0.0166619 0.0167509 0.0167298 0.0166562 0.0165466 0.0163173 0.0160398 0.0157557 0.0153856 0.0150247 0.0146576 0.014284 0.0139012 0.0134584 0.0130484 0.0126035 0.0121426 0.0116804 0.0112266 0.0107867 0.0103634 0.00995795 0.00957081 0.00920203 0.00885148 0.0085189 0.00820405 0.00790662 0.00762637 0.007363 0.00711627 0.00688591 0.00667167 0.00647332 0.00629063 0.00612339 0.00597138 0.00583442 0.00571235 0.005605 0.00551224 0.00543395 0.00537003 0.00532041 0.005285 0.00526378 0.00525671 
0.00419292 0.0041984 0.00421484 0.00424226 0.00428069 0.00433019 0.00439079 0.00446257 0.00454562 0.00464003 0.00474589 0.00486334 0.0049925 0.00513351 0.00528654 0.00545175 0.00562933 0.00581947 0.00602238 0.00623828 0.00646738 0.00670992 0.0069661 0.00723613 0.00752016 0.00781826 0.00813039 0.00845622 0.00879509 0.00914591 0.00950739 0.00987919 0.0102353 0.0105793 0.0109277 0.0112867 0.011662 0.0120484 0.0124493 0.0128692 0.0133129 0.013773 0.0142098 0.0146138 0.0150125 0.015395 0.0157433 0.0160698 0.0163691 0.0166144 0.0167985 0.0170347 0.0172744 0.0173968 0.01749 0.0176362 0.0176513 0.0175482 0.017414 0.0171827 0.0168391 0.0164457 0.0160586 0.0156543 0.0152441 0.0148354 0.0144385 0.0140058 0.0135386 0.0130546 0.0125492 0.012045 0.0115546 0.011083 0.0106322 0.0102025 0.00979379 0.00940571 0.00903778 0.00868951 0.00836045 0.00805017 0.00775826 0.00748435 0.00722807 0.00698909 0.00676709 0.00656176 0.00637282 0.00619999 0.00604303 0.0059017 0.00577581 0.00566517 0.0055696 0.00548898 0.00542318 0.0053721 0.00533567 0.00531383 0.00530656 
0.00422518 0.00423077 0.00424756 0.00427557 0.00431482 0.00436538 0.0044273 0.00450066 0.00458555 0.00468207 0.00479035 0.00491052 0.00504272 0.00518713 0.00534392 0.00551328 0.00569544 0.00589061 0.00609904 0.006321 0.00655674 0.00680656 0.00707074 0.00734955 0.00764322 0.0079519 0.00827557 0.00861376 0.00896526 0.00932754 0.00969638 0.0100667 0.0104073 0.0107823 0.0111453 0.0115228 0.0119173 0.0123273 0.0127536 0.0131997 0.013677 0.0141601 0.0146213 0.0150483 0.0155216 0.0159179 0.0163183 0.016708 0.0170832 0.0174545 0.0177222 0.0179681 0.0181859 0.0183256 0.0184292 0.0185115 0.0185476 0.0184439 0.0182398 0.0180111 0.0176597 0.017211 0.016769 0.0163163 0.01586 0.0154117 0.0149919 0.0145753 0.0140842 0.0135647 0.0129908 0.012431 0.0118974 0.011391 0.0109109 0.0104558 0.0100247 0.00961658 0.00923063 0.00886609 0.00852231 0.0081987 0.00789472 0.00760988 0.00734371 0.0070958 0.00686575 0.00665319 0.00645776 0.00627915 0.00611706 0.00597121 0.00584136 0.0057273 0.00562884 0.00554579 0.00547804 0.00542546 0.00538797 0.00536549 0.00535801 
0.0042583 0.00426402 0.00428116 0.00430977 0.00434988 0.00440153 0.00446481 0.00453979 0.00462657 0.00472528 0.00483604 0.00495901 0.00509435 0.00524224 0.0054029 0.00557653 0.00576339 0.00596373 0.00617784 0.00640602 0.0066486 0.00690594 0.00717839 0.00746636 0.00777023 0.00809039 0.00842704 0.00878 0.00914805 0.00952779 0.00991164 0.0102854 0.0106392 0.0110264 0.011397 0.0117936 0.0122115 0.0126463 0.0130995 0.0135731 0.0140696 0.0145797 0.0150744 0.015555 0.0160431 0.0165003 0.0169546 0.017398 0.017831 0.0182717 0.0186966 0.0190029 0.0192064 0.0193728 0.0194768 0.0195084 0.0194412 0.0193085 0.0191041 0.018812 0.0184301 0.0179832 0.0175055 0.017003 0.0164917 0.0159843 0.0155127 0.0150602 0.0145519 0.0140229 0.0134549 0.0128264 0.0122471 0.0117056 0.0111961 0.0107154 0.0102615 0.00983299 0.00942861 0.00904741 0.00868853 0.00835123 0.00803485 0.00773877 0.00746244 0.00720535 0.00696702 0.00674702 0.00654492 0.00636036 0.00619299 0.00604249 0.00590858 0.00579101 0.00568955 0.00560403 0.00553426 0.00548014 0.00544155 0.00541842 0.00541072 