<?xml version="1.0"?>
<VTKFile type="StructuredGrid" version="0.1">
    <StructuredGrid WholeExtent="0 100 0 100 0 0">
        <Piece Extent="0 100 0 100 0 0">
            <Points>
                <DataArray type="Float64" NumberOfComponents="3" format="ascii">
-15 -15 0
-15 -14.7 0
-15 -14.4 0
-15 -14.1 0
-15 -13.8 0
-15 -13.5 0
-15 -13.2 0
-15 -12.9 0
-15 -12.6 0
-15 -12.3 0
-15 -12 0
-15 -11.7 0
-15 -11.4 0
-15 -11.1 0
-15 -10.8 0
-15 -10.5 0
-15 -10.2 0
-15 -9.9 0
-15 -9.6 0
-15 -9.3 0
-15 -9 0
-15 -8.7 0
-15 -8.4 0
-15 -8.1 0
-15 -7.8 0
-15 -7.5 0
-15 -7.2 0
-15 -6.9 0
-15 -6.6 0
-15 -6.3 0
-15 -6 0
-15 -5.7 0
-15 -5.4 0
-15 -5.1 0
-15 -4.8 0
-15 -4.5 0
-15 -4.2 0
-15 -3.9 0
-15 -3.6 0
-15 -3.3 0
-15 -3 0
-15 -2.7 0
-15 -2.4 0
-15 -2.1 0
-15 -1.8 0
-15 -1.5 0
-15 -1.2 0
-15 -0.9 0
-15 -0.6 0
-15 -0.3 0
-15 0 0
-15 0.3 0
-15 0.6 0
-15 0.9 0
-15 1.2 0
-15 1.5 0
-15 1.8 0
-15 2.1 0
-15 2.4 0
-15 2.7 0
-15 3 0
-15 3.3 0
-15 3.6 0
-15 3.9 0
-15 4.2 0
-15 4.5 0
-15 4.8 0
-15 5.1 0
-15 5.4 0
-15 5.7 0
-15 6 0
-15 6.3 0
-15 6.6 0
-15 6.9 0
-15 7.2 0
-15 7.5 0
-15 7.8 0
-15 8.1 0
-15 8.4 0
-15 8.7 0
-15 9 0
-15 9.3 0
-15 9.6 0
-15 9.9 0
-15 10.2 0
-15 10.5 0
-15 10.8 0
-15 11.1 0
-15 11.4 0
-15 11.7 0
-15 12 0
-15 12.3 0
-15 12.6 0
-15 12.9 0
-15 13.2 0
-15 13.5 0
-15 13.8 0
-15 14.1 0
-15 14.4 0
-15 14.7 0
-15 15 0
-14.7 -15 0
-14.7 -14.7 0
-14.7 -14.4 0
-14.7 -14.1 0
-14.7 -13.8 0
-14.7 -13.5 0
-14.7 -13.2 0
-14.7 -12.9 0
-14.7 -12.6 0
-14.7 -12.3 0
-14.7 -12 0
-14.7 -11.7 0
-14.7 -11.4 0
-14.7 -11.1 0
-14.7 -10.8 0
-14.7 -10.5 0
-14.7 -10.2 0
-14.7 -9.9 0
-14.7 -9.6 0
-14.7 -9.3 0
-14.7 -9 0
-14.7 -8.7 0
-14.7 -8.4 0
-14.7 -8.1 0
-14.7 -7.8 0
-14.7 -7.5 0
-14.7 -7.2 0
-14.7 -6.9 0
-14.7 -6.6 0
-14.7 -6.3 0
-14.7 -6 0
-14.7 -5.7 0
-14.7 -5.4 0
-14.7 -5.1 0
-14.7 -4.8 0
-14.7 -4.5 0
-14.7 -4.2 0
-14.7 -3.9 0
-14.7 -3.6 0
-14.7 -3.3 0
-14.7 -3 0
-14.7 -2.7 0
-14.7 -2.4 0
-14.7 -2.1 0
-14.7 -1.8 0
-14.7 -1.5 0
-14.7 -1.2 0
-14.7 -0.9 0
-14.7 -0.6 0
-14.7 -0.3 0
-14.7 0 0
-14.7 0.3 0
-14.7 0.6 0
-14.7 0.9 0
-14.7 1.2 0
-14.7 1.5 0
-14.7 1.8 0
-14.7 2.1 0
-14.7 2.4 0
-14.7 2.7 0
-14.7 3 0
-14.7 3.3 0
-14.7 3.6 0
-14.7 3.9 0
-14.7 4.2 0
-14.7 4.5 0
-14.7 4.8 0
-14.7 5.1 0
-14.7 5.4 0
-14.7 5.7 0
-14.7 6 0
-14.7 6.3 0
-14.7 6.6 0
-14.7 6.9 0
-14.7 7.2 0
-14.7 7.5 0
-14.7 7.8 0
-14.7 8.1 0
-14.7 8.4 0
-14.7 8.7 0
-14.7 9 0
-14.7 9.3 0
-14.7 9.6 0
-14.7 9.9 0
-14.7 10.2 0
-14.7 10.5 0
-14.7 10.8 0
-14.7 11.1 0
-14.7 11.4 0
-14.7 11.7 0
-14.7 12 0
-14.7 12.3 0
-14.7 12.6 0
-14.7 12.9 0
-14.7 13.2 0
-14.7 13.5 0
-14.7 13.8 0
-14.7 14.1 0
-14.7 14.4 0
-14.7 14.7 0
-14.7 15 0
-14.4 -15 0
-14.4 -14.7 0
-14.4 -14.4 0
-14.4 -14.1 0
-14.4 -13.8 0
-14.4 -13.5 0
-14.4 -13.2 0
-14.4 -12.9 0
-14.4 -12.6 0
-14.4 -12.3 0
-14.4 -12 0
-14.4 -11.7 0
-14.4 -11.4 0
-14.4 -11.1 0
-14.4 -10.8 0
-14.4 -10.5 0
-14.4 -10.2 0
-14.4 -9.9 0
-14.4 -9.6 0
-14.4 -9.3 0
-14.4 -9 0
-14.4 -8.7 0
-14.4 -8.4 0
-14.4 -8.1 0
-14.4 -7.8 0
-14.4 -7.5 0
-14.4 -7.2 0
-14.4 -6.9 0
-14.4 -6.6 0
-14.4 -6.3 0
-14.4 -6 0
-14.4 -5.7 0
-14.4 -5.4 0
-14.4 -5.1 0
-14.4 -4.8 0
-14.4 -4.5 0
-14.4 -4.2 0
-14.4 -3.9 0
-14.4 -3.6 0
-14.4 -3.3 0
-14.4 -3 0
-14.4 -2.7 0
-14.4 -2.4 0
-14.4 -2.1 0
-14.4 -1.8 0
-14.4 -1.5 0
-14.4 -1.2 0
-14.4 -0.9 0
-14.4 -0.6 0
-14.4 -0.3 0
-14.4 0 0
-14.4 0.3 0
-14.4 0.6 0
-14.4 0.9 0
-14.4 1.2 0
-14.4 1.5 0
-14.4 1.8 0
-14.4 2.1 0
-14.4 2.4 0
-14.4 2.7 0
-14.4 3 0
-14.4 3.3 0
-14.4 3.6 0
-14.4 3.9 0
-14.4 4.2 0
-14.4 4.5 0
-14.4 4.8 0
-14.4 5.1 0
-14.4 5.4 0
-14.4 5.7 0
-14.4 6 0
-14.4 6.3 0
-14.4 6.6 0
-14.4 6.9 0
-14.4 7.2 0
-14.4 7.5 0
-14.4 7.8 0
-14.4 8.1 0
-14.4 8.4 0
-14.4 8.7 0
-14.4 9 0
-14.4 9.3 0
-14.4 9.6 0
-14.4 9.9 0
-14.4 10.2 0
-14.4 10.5 0
-14.4 10.8 0
-14.4 11.1 0
-14.4 11.4 0
-14.4 11.7 0
-14.4 12 0
-14.4 12.3 0
-14.4 12.6 0
-14.4 12.9 0
-14.4 13.2 0
-14.4 13.5 0
-14.4 13.8 0
-14.4 14.1 0
-14.4 14.4 0
-14.4 14.7 0
-14.4 15 0
-14.1 -15 0
-14.1 -14.7 0
-14.1 -14.4 0
-14.1 -14.1 0
-14.1 -13.8 0
-14.1 -13.5 0
-14.1 -13.2 0
-14.1 -12.9 0
-14.1 -12.6 0
-14.1 -12.3 0
-14.1 -12 0
-14.1 -11.7 0
-14.1 -11.4 0
-14.1 -11.1 0
-14.1 -10.8 0
-14.1 -10.5 0
-14.1 -10.2 0
-14.1 -9.9 0
-14.1 -9.6 0
-14.1 -9.3 0
-14.1 -9 0
-14.1 -8.7 0
-14.1 -8.4 0
-14.1 -8.1 0
-14.1 -7.8 0
-14.1 -7.5 0
-14.1 -7.2 0
-14.1 -6.9 0
-14.1 -6.6 0
-14.1 -6.3 0
-14.1 -6 0
-14.1 -5.7 0
-14.1 -5.4 0
-14.1 -5.1 0
-14.1 -4.8 0
-14.1 -4.5 0
-14.1 -4.2 0
-14.1 -3.9 0
-14.1 -3.6 0
-14.1 -3.3 0
-14.1 -3 0
-14.1 -2.7 0
-14.1 -2.4 0
-14.1 -2.1 0
-14.1 -1.8 0
-14.1 -1.5 0
-14.1 -1.2 0
-14.1 -0.9 0
-14.1 -0.6 0
-14.1 -0.3 0
-14.1 0 0
-14.1 0.3 0
-14.1 0.6 0
-14.1 0.9 0
-14.1 1.2 0
-14.1 1.5 0
-14.1 1.8 0
-14.1 2.1 0
-14.1 2.4 0
-14.1 2.7 0
-14.1 3 0
-14.1 3.3 0
-14.1 3.6 0
-14.1 3.9 0
-14.1 4.2 0
-14.1 4.5 0
-14.1 4.8 0
-14.1 5.1 0
-14.1 5.4 0
-14.1 5.7 0
-14.1 6 0
-14.1 6.3 0
-14.1 6.6 0
-14.1 6.9 0
-14.1 7.2 0
-14.1 7.5 0
-14.1 7.8 0
-14.1 8.1 0
-14.1 8.4 0
-14.1 8.7 0
-14.1 9 0
-14.1 9.3 0
-14.1 9.6 0
-14.1 9.9 0
-14.1 10.2 0
-14.1 10.5 0
-14.1 10.8 0
-14.1 11.1 0
-14.1 11.4 0
-14.1 11.7 0
-14.1 12 0
-14.1 12.3 0
-14.1 12.6 0
-14.1 12.9 0
-14.1 13.2 0
-14.1 13.5 0
-14.1 13.8 0
-14.1 14.1 0
-14.1 14.4 0
-14.1 14.7 0
-14.1 15 0
-13.8 -15 0
-13.8 -14.7 0
-13.8 -14.4 0
-13.8 -14.1 0
-13.8 -13.8 0
-13.8 -13.5 0
-13.8 -13.2 0
-13.8 -12.9 0
-13.8 -12.6 0
-13.8 -12.3 0
-13.8 -12 0
-13.8 -11.7 0
-13.8 -11.4 0
-13.8 -11.1 0
-13.8 -10.8 0
-13.8 -10.5 0
-13.8 -10.2 0
-13.8 -9.9 0
-13.8 -9.6 0
-13.8 -9.3 0
-13.8 -9 0
-13.8 -8.7 0
-13.8 -8.4 0
-13.8 -8.1 0
-13.8 -7.8 0
-13.8 -7.5 0
-13.8 -7.2 0
-13.8 -6.9 0
-13.8 -6.6 0
-13.8 -6.3 0
-13.8 -6 0
-13.8 -5.7 0
-13.8 -5.4 0
-13.8 -5.1 0
-13.8 -4.8 0
-13.8 -4.5 0
-13.8 -4.2 0
-13.8 -3.9 0
-13.8 -3.6 0
-13.8 -3.3 0
-13.8 -3 0
-13.8 -2.7 0
-13.8 -2.4 0
-13.8 -2.1 0
-13.8 -1.8 0
-13.8 -1.5 0
-13.8 -1.2 0
-13.8 -0.9 0
-13.8 -0.6 0
-13.8 -0.3 0
-13.8 0 0
-13.8 0.3 0
-13.8 0.6 0
-13.8 0.9 0
-13.8 1.2 0
-13.8 1.5 0
-13.8 1.8 0
-13.8 2.1 0
-13.8 2.4 0
-13.8 2.7 0
-13.8 3 0
-13.8 3.3 0
-13.8 3.6 0
-13.8 3.9 0
-13.8 4.2 0
-13.8 4.5 0
-13.8 4.8 0
-13.8 5.1 0
-13.8 5.4 0
-13.8 5.7 0
-13.8 6 0
-13.8 6.3 0
-13.8 6.6 0
-13.8 6.9 0
-13.8 7.2 0
-13.8 7.5 0
-13.8 7.8 0
-13.8 8.1 0
-13.8 8.4 0
-13.8 8.7 0
-13.8 9 0
-13.8 9.3 0
-13.8 9.6 0
-13.8 9.9 0
-13.8 10.2 0
-13.8 10.5 0
-13.8 10.8 0
-13.8 11.1 0
-13.8 11.4 0
-13.8 11.7 0
-13.8 12 0
-13.8 12.3 0
-13.8 12.6 0
-13.8 12.9 0
-13.8 13.2 0
-13.8 13.5 0
-13.8 13.8 0
-13.8 14.1 0
-13.8 14.4 0
-13.8 14.7 0
-13.8 15 0
-13.5 -15 0
-13.5 -14.7 0
-13.5 -14.4 0
-13.5 -14.1 0
-13.5 -13.8 0
-13.5 -13.5 0
-13.5 -13.2 0
-13.5 -12.9 0
-13.5 -12.6 0
-13.5 -12.3 0
-13.5 -12 0
-13.5 -11.7 0
-13.5 -11.4 0
-13.5 -11.1 0
-13.5 -10.8 0
-13.5 -10.5 0
-13.5 -10.2 0
-13.5 -9.9 0
-13.5 -9.6 0
-13.5 -9.3 0
-13.5 -9 0
-13.5 -8.7 0
-13.5 -8.4 0
-13.5 -8.1 0
-13.5 -7.8 0
-13.5 -7.5 0
-13.5 -7.2 0
-13.5 -6.9 0
-13.5 -6.6 0
-13.5 -6.3 0
-13.5 -6 0
-13.5 -5.7 0
-13.5 -5.4 0
-13.5 -5.1 0
-13.5 -4.8 0
-13.5 -4.5 0
-13.5 -4.2 0
-13.5 -3.9 0
-13.5 -3.6 0
-13.5 -3.3 0
-13.5 -3 0
-13.5 -2.7 0
-13.5 -2.4 0
-13.5 -2.1 0
-13.5 -1.8 0
-13.5 -1.5 0
-13.5 -1.2 0
-13.5 -0.9 0
-13.5 -0.6 0
-13.5 -0.3 0
-13.5 0 0
-13.5 0.3 0
-13.5 0.6 0
-13.5 0.9 0
-13.5 1.2 0
-13.5 1.5 0
-13.5 1.8 0
-13.5 2.1 0
-13.5 2.4 0
-13.5 2.7 0
-13.5 3 0
-13.5 3.3 0
-13.5 3.6 0
-13.5 3.9 0
-13.5 4.2 0
-13.5 4.5 0
-13.5 4.8 0
-13.5 5.1 0
-13.5 5.4 0
-13.5 5.7 0
-13.5 6 0
-13.5 6.3 0
-13.5 6.6 0
-13.5 6.9 0
-13.5 7.2 0
-13.5 7.5 0
-13.5 7.8 0
-13.5 8.1 0
-13.5 8.4 0
-13.5 8.7 0
-13.5 9 0
-13.5 9.3 0
-13.5 9.6 0
-13.5 9.9 0
-13.5 10.2 0
-13.5 10.5 0
-13.5 10.8 0
-13.5 11.1 0
-13.5 11.4 0
-13.5 11.7 0
-13.5 12 0
-13.5 12.3 0
-13.5 12.6 0
-13.5 12.9 0
-13.5 13.2 0
-13.5 13.5 0
-13.5 13.8 0
-13.5 14.1 0
-13.5 14.4 0
-13.5 14.7 0
-13.5 15 0
-13.2 -15 0
-13.2 -14.7 0
-13.2 -14.4 0
-13.2 -14.1 0
-13.2 -13.8 0
-13.2 -13.5 0
-13.2 -13.2 0
-13.2 -12.9 0
-13.2 -12.6 0
-13.2 -12.3 0
-13.2 -12 0
-13.2 -11.7 0
-13.2 -11.4 0
-13.2 -11.1 0
-13.2 -10.8 0
-13.2 -10.5 0
-13.2 -10.2 0
-13.2 -9.9 0
-13.2 -9.6 0
-13.2 -9.3 0
-13.2 -9 0
-13.2 -8.7 0
-13.2 -8.4 0
-13.2 -8.1 0
-13.2 -7.8 0
-13.2 -7.5 0
-13.2 -7.2 0
-13.2 -6.9 0
-13.2 -6.6 0
-13.2 -6.3 0
-13.2 -6 0
-13.2 -5.7 0
-13.2 -5.4 0
-13.2 -5.1 0
-13.2 -4.8 0
-13.2 -4.5 0
-13.2 -4.2 0
-13.2 -3.9 0
-13.2 -3.6 0
-13.2 -3.3 0
-13.2 -3 0
-13.2 -2.7 0
-13.2 -2.4 0
-13.2 -2.1 0
-13.2 -1.8 0
-13.2 -1.5 0
-13.2 -1.2 0
-13.2 -0.9 0
-13.2 -0.6 0
-13.2 -0.3 0
-13.2 0 0
-13.2 0.3 0
-13.2 0.6 0
-13.2 0.9 0
-13.2 1.2 0
-13.2 1.5 0
-13.2 1.8 0
-13.2 2.1 0
-13.2 2.4 0
-13.2 2.7 0
-13.2 3 0
-13.2 3.3 0
-13.2 3.6 0
-13.2 3.9 0
-13.2 4.2 0
-13.2 4.5 0
-13.2 4.8 0
-13.2 5.1 0
-13.2 5.4 0
-13.2 5.7 0
-13.2 6 0
-13.2 6.3 0
-13.2 6.6 0
-13.2 6.9 0
-13.2 7.2 0
-13.2 7.5 0
-13.2 7.8 0
-13.2 8.1 0
-13.2 8.4 0
-13.2 8.7 0
-13.2 9 0
-13.2 9.3 0
-13.2 9.6 0
-13.2 9.9 0
-13.2 10.2 0
-13.2 10.5 0
-13.2 10.8 0
-13.2 11.1 0
-13.2 11.4 0
-13.2 11.7 0
-13.2 12 0
-13.2 12.3 0
-13.2 12.6 0
-13.2 12.9 0
-13.2 13.2 0
-13.2 13.5 0
-13.2 13.8 0
-13.2 14.1 0
-13.2 14.4 0
-13.2 14.7 0
-13.2 15 0
-12.9 -15 0
-12.9 -14.7 0
-12.9 -14.4 0
-12.9 -14.1 0
-12.9 -13.8 0
-12.9 -13.5 0
-12.9 -13.2 0
-12.9 -12.9 0
-12.9 -12.6 0
-12.9 -12.3 0
-12.9 -12 0
-12.9 -11.7 0
-12.9 -11.4 0
-12.9 -11.1 0
-12.9 -10.8 0
-12.9 -10.5 0
-12.9 -10.2 0
-12.9 -9.9 0
-12.9 -9.6 0
-12.9 -9.3 0
-12.9 -9 0
-12.9 -8.7 0
-12.9 -8.4 0
-12.9 -8.1 0
-12.9 -7.8 0
-12.9 -7.5 0
-12.9 -7.2 0
-12.9 -6.9 0
-12.9 -6.6 0
-12.9 -6.3 0
-12.9 -6 0
-12.9 -5.7 0
-12.9 -5.4 0
-12.9 -5.1 0
-12.9 -4.8 0
-12.9 -4.5 0
-12.9 -4.2 0
-12.9 -3.9 0
-12.9 -3.6 0
-12.9 -3.3 0
-12.9 -3 0
-12.9 -2.7 0
-12.9 -2.4 0
-12.9 -2.1 0
-12.9 -1.8 0
-12.9 -1.5 0
-12.9 -1.2 0
-12.9 -0.9 0
-12.9 -0.6 0
-12.9 -0.3 0
-12.9 0 0
-12.9 0.3 0
-12.9 0.6 0
-12.9 0.9 0
-12.9 1.2 0
-12.9 1.5 0
-12.9 1.8 0
-12.9 2.1 0
-12.9 2.4 0
-12.9 2.7 0
-12.9 3 0
-12.9 3.3 0
-12.9 3.6 0
-12.9 3.9 0
-12.9 4.2 0
-12.9 4.5 0
-12.9 4.8 0
-12.9 5.1 0
-12.9 5.4 0
-12.9 5.7 0
-12.9 6 0
-12.9 6.3 0
-12.9 6.6 0
-12.9 6.9 0
-12.9 7.2 0
-12.9 7.5 0
-12.9 7.8 0
-12.9 8.1 0
-12.9 8.4 0
-12.9 8.7 0
-12.9 9 0
[...]
            <PointData>
                <DataArray type="Float64" Name="c1" format="ascii">
0.00394336 0.0039477 0.0039607 0.00398237 0.00401273 0.0040518 0.00409958 0.0041561 0.00422139 0.00429547 0.00437837 0.00447012 0.00457075 0.00468027 0.00479869 0.00492604 0.00506228 0.00520741 0.00536137 0.0055241 0.0056955 0.00587546 0.00606381 0.00626038 0.00646493 0.00667719 0.0068968 0.00712326 0.0073559 0.00759375 0.00783551 0.00807953 0.00832403 0.00856741 0.00880877 0.00904821 0.00928671 0.00952538 0.00976455 0.0100032 0.0102391 0.0104688 0.0106889 0.0108966 0.0110899 0.0112675 0.0114283 0.011571 0.0116941 0.0117963 0.0118768 0.0119345 0.011969 0.0119796 0.0119665 0.0119309 0.0118745 0.0117993 0.0117071 0.0115995 0.0114771 0.0113406 0.0111898 0.0110245 0.0108443 0.0106494 0.0104403 0.0102185 0.0099861 0.00974536 0.00949881 0.00924883 0.00899759 0.00874698 0.00849862 0.00825388 0.00801393 0.00777975 0.00755219 0.00733194 0.00711963 0.00691575 0.00672077 0.00653504 0.0063589 0.0061926 0.00603637 0.0058904 0.00575484 0.00562982 0.00551544 0.00541178 0.00531891 0.00523687 0.00516572 0.00510546 0.00505614 0.00501777 0.00499035 0.0049739 0.00496841 
0.00394456 0.0039489 0.00396191 0.00398361 0.004014 0.0040531 0.00410093 0.00415752 0.00422287 0.00429704 0.00438003 0.00447189 0.00457264 0.00468229 0.00480087 0.00492838 0.00506481 0.00521015 0.00536433 0.00552731 0.00569899 0.00587924 0.00606792 0.00626485 0.00646981 0.00668253 0.00690267 0.00712974 0.00736308 0.00760172 0.00784428 0.00808903 0.008334 0.00857741 0.0088183 0.00905699 0.00929491 0.00953364 0.00977376 0.0100143 0.0102527 0.0104852 0.0107079 0.0109178 0.011113 0.0112923 0.0114546 0.0115986 0.0117228 0.0118259 0.011907 0.0119653 0.012 0.0120106 0.0119968 0.01196 0.0119023 0.0118258 0.0117325 0.011624 0.0115012 0.0113643 0.0112134 0.0110479 0.0108674 0.0106718 0.0104618 0.0102387 0.0100047 0.00976243 0.00951436 0.00926297 0.00901045 0.00875868 0.00850929 0.00826363 0.00802285 0.00778793 0.00755969 0.00733883 0.00712595 0.00692157 0.00672612 0.00653997 0.00636344 0.00619679 0.00604025 0.005894 0.00575818 0.00563293 0.00551835 0.00541451 0.00532148 0.00523931 0.00516804 0.0051077 0.0050583 0.00501986 0.0049924 0.00497592 0.00497043 
0.00394815 0.0039525 0.00396555 0.00398731 0.0040178 0.00405702 0.004105 0.00416176 0.00422733 0.00430174 0.00438502 0.0044772 0.0045783 0.00468836 0.00480739 0.00493541 0.0050724 0.00521835 0.00537321 0.00553694 0.00570943 0.00589059 0.00608026 0.00627828 0.00648446 0.00669856 0.00692028 0.0071492 0.00738468 0.00762573 0.00787084 0.0081179 0.00836438 0.00860787 0.0088471 0.00908304 0.00931876 0.00955746 0.00980046 0.0100467 0.0102929 0.0105342 0.0107651 0.0109819 0.0111828 0.011367 0.0115339 0.0116819 0.0118094 0.0119149 0.0119979 0.0120579 0.012094 0.0121048 0.0120888 0.0120482 0.0119859 0.0119052 0.0118086 0.0116976 0.0115731 0.0114354 0.0112842 0.0111184 0.0109371 0.0107396 0.0105265 0.0102994 0.0100608 0.00981366 0.00956096 0.0093053 0.00904891 0.0087937 0.00854123 0.00829281 0.00804956 0.0078124 0.00758213 0.00735943 0.00714488 0.00693897 0.00674213 0.00655472 0.00637704 0.00620935 0.00605187 0.00590476 0.00576819 0.00564226 0.00552707 0.0054227 0.0053292 0.00524663 0.00517501 0.00511438 0.00506475 0.00502614 0.00499855 0.004982 0.00497648 
0.0039541 0.00395847 0.00397159 0.00399346 0.0040241 0.00406352 0.00411175 0.00416881 0.00423473 0.00430955 0.00439329 0.004486 0.00458771 0.00469844 0.00481822 0.00494707 0.00508499 0.00523197 0.00538797 0.00555294 0.0057268 0.00590945 0.00610077 0.00630062 0.00650883 0.00672524 0.00694963 0.00718167 0.00742083 0.00766613 0.00791585 0.00816728 0.00841674 0.00866034 0.00889588 0.00912538 0.00935575 0.00959378 0.00984171 0.0100981 0.0103585 0.0106156 0.0108613 0.0110897 0.0112997 0.0114921 0.0116669 0.0118222 0.0119552 0.0120645 0.0121504 0.0122139 0.0122534 0.0122659 0.0122456 0.0121975 0.0121265 0.0120379 0.011935 0.0118196 0.0116925 0.0115537 0.0114024 0.0112368 0.0110545 0.0108541 0.0106358 0.0104015 0.0101545 0.00989898 0.00963835 0.00937549 0.00911266 0.00885173 0.00859417 0.00834121 0.00809387 0.00785301 0.00761939 0.00739364 0.00717631 0.00696787 0.00676872 0.00657921 0.00639962 0.0062302 0.00607115 0.00592264 0.0057848 0.00565773 0.00554154 0.00543628 0.00534201 0.00525876 0.00518658 0.00512547 0.00507546 0.00503655 0.00500875 0.00499207 0.00498651 
0.00396238 0.00396678 0.00397999 0.00400201 0.00403287 0.00407257 0.00412114 0.00417862 0.00424503 0.00432042 0.00440482 0.00449826 0.00460081 0.00471248 0.00483331 0.00496333 0.00510254 0.00525095 0.00540854 0.00557525 0.00575102 0.00593578 0.00612941 0.00633181 0.00654288 0.00676253 0.00699067 0.00722717 0.00747169 0.00772338 0.00798035 0.00823909 0.00849402 0.00873821 0.00896649 0.00918201 0.00940074 0.009637 0.00989243 0.010164 0.0104466 0.0107293 0.0109986 0.0112432 0.0114651 0.0116685 0.0118549 0.0120219 0.0121628 0.0122765 0.0123652 0.0124347 0.0124814 0.0125024 0.0124727 0.0124118 0.0123253 0.0122235 0.0121111 0.0119892 0.0118583 0.0117183 0.0115681 0.0114046 0.011222 0.0110178 0.0107922 0.0105469 0.0102866 0.0100182 0.00974602 0.00947293 0.00920113 0.00893228 0.0086677 0.00840846 0.00815547 0.00790951 0.00767124 0.00744126 0.00722006 0.0070081 0.00680574 0.0066133 0.00643105 0.00625922 0.00609799 0.00594752 0.00580791 0.00567927 0.00556167 0.00545518 0.00535983 0.00527565 0.00520267 0.0051409 0.00509035 0.00505103 0.00502294 0.00500609 0.00500047 
0.00397294 0.00397738 0.00399071 0.00401293 0.00404405 0.00408411 0.00413313 0.00419114 0.00425818 0.00433429 0.00441952 0.00451391 0.00461752 0.00473039 0.00485257 0.00498408 0.00512496 0.00527521 0.00543483 0.00560379 0.00578203 0.00596949 0.0061661 0.0063718 0.00658654 0.00681035 0.00704333 0.00728564 0.00753729 0.00779781 0.00806543 0.00833589 0.008601 0.00884811 0.00906368 0.00924875 0.00944332 0.00967832 0.00994573 0.0102377 0.0105526 0.010875 0.0111828 0.0114467 0.0116803 0.0118962 0.012099 0.0122857 0.012437 0.0125536 0.0126404 0.0127202 0.0127785 0.0128339 0.0127762 0.0126964 0.0125823 0.0124606 0.0123351 0.0122047 0.0120687 0.0119275 0.011781 0.0116248 0.0114436 0.0112355 0.0110008 0.0107404 0.0104581 0.0101709 0.00988299 0.00959664 0.00931343 0.00903462 0.00876123 0.0084941 0.00823398 0.00798154 0.00773737 0.007502 0.00727588 0.00705942 0.00685296 0.00665679 0.00647115 0.00629624 0.00613223 0.00597924 0.00583739 0.00570673 0.00558735 0.00547928 0.00538254 0.00529717 0.00522318 0.00516057 0.00510934 0.00506949 0.00504104 0.00502396 0.00501827 
0.00398573 0.00399021 0.00400368 0.00402613 0.0040576 0.00409809 0.00414764 0.00420629 0.00427409 0.00435108 0.00443731 0.00453286 0.00463776 0.00475209 0.00487589 0.00500923 0.00515214 0.00530464 0.00546674 0.00563844 0.00581971 0.0060105 0.00621077 0.0064205 0.00663973 0.00686861 0.00710749 0.00735687 0.00761737 0.00788926 0.00817153 0.00845999 0.00874417 0.0090027 0.00920045 0.00931511 0.00946003 0.00970579 0.00999571 0.010309 0.0106681 0.0110497 0.0114313 0.011709 0.0119468 0.0121735 0.0123976 0.0126245 0.0127866 0.0129022 0.0129651 0.0130701 0.0131224 0.0131591 0.0131476 0.0130614 0.0128916 0.0127441 0.0126039 0.0124636 0.0123208 0.0121775 0.0120383 0.0119039 0.0117257 0.0115137 0.0112708 0.0109944 0.0106699 0.0103555 0.0100475 0.00974511 0.00944839 0.00915785 0.00887405 0.00859755 0.00832891 0.0080687 0.00781741 0.00757553 0.00734346 0.00712156 0.00691013 0.00670943 0.00651968 0.00634105 0.00617366 0.00601763 0.00587305 0.00573996 0.00561841 0.00550842 0.00541002 0.00532321 0.00524799 0.00518435 0.0051323 0.00509182 0.00506291 0.00504557 0.00503979 
0.00400066 0.0040052 0.00401883 0.00404156 0.00407341 0.00411441 0.00416459 0.00422399 0.00429268 0.00437069 0.00445811 0.00455499 0.00466141 0.00477745 0.00490317 0.00503865 0.00518394 0.00533909 0.00550413 0.00567908 0.00586394 0.00605869 0.00626331 0.00647784 0.00670239 0.00693724 0.00718296 0.00744052 0.00771127 0.00799665 0.00829732 0.00861113 0.00892902 0.00922447 0.0094186 0.00947202 0.0094672 0.00970998 0.0100491 0.010409 0.0108441 0.0113612 0.0117991 0.0120454 0.0122645 0.0124944 0.0127346 0.0129239 0.0130826 0.0132053 0.0132919 0.0133582 0.0134034 0.0133953 0.0134338 0.0133881 0.0132232 0.0130633 0.0129138 0.0127639 0.0126109 0.0124596 0.0123264 0.0121645 0.0119796 0.0117625 0.0115174 0.0112454 0.0109115 0.0105672 0.0102366 0.00991626 0.00960457 0.00930095 0.00900539 0.00871817 0.00843972 0.00817049 0.00791093 0.00766145 0.00742242 0.00719416 0.00697692 0.00677093 0.00657636 0.00639336 0.00622203 0.00606245 0.00591468 0.00577874 0.00565466 0.00554244 0.00544209 0.00535359 0.00527693 0.0052121 0.00515908 0.00511786 0.00508843 0.00507078 0.00506489 
0.00401766 0.00402226 0.00403608 0.00405912 0.00409141 0.00413299 0.00418388 0.00424414 0.00431383 0.00439302 0.00448178 0.0045802 0.00468835 0.00480634 0.00493425 0.00507217 0.0052202 0.0053784 0.00554683 0.00572555 0.00591458 0.00611393 0.00632364 0.00654378 0.0067745 0.00701621 0.00726968 0.00753628 0.00781811 0.00811795 0.00843864 0.00878206 0.0091486 0.00954135 0.00969733 0.00968112 0.00972266 0.00986455 0.0101855 0.0106566 0.011144 0.0116564 0.0121336 0.0124509 0.0126233 0.0128537 0.0130366 0.0131703 0.0133136 0.0134401 0.0135492 0.0135669 0.0136093 0.0136454 0.0136671 0.0136482 0.013555 0.0134142 0.0132655 0.0131068 0.0129379 0.0127609 0.0126095 0.0124078 0.0121977 0.011968 0.0117193 0.0114577 0.0111688 0.0107983 0.0104458 0.0101076 0.00978047 0.0094629 0.00915449 0.00885536 0.00856586 0.00828642 0.00801744 0.00775931 0.00751234 0.00727681 0.00705295 0.00684092 0.00664086 0.00645289 0.00627706 0.00611343 0.00596202 0.00582283 0.00569587 0.00558111 0.00547854 0.00538812 0.00530983 0.00524364 0.00518953 0.00514746 0.00511743 0.00509942 0.00509342 
0.00403662 0.00404129 0.00405532 0.00407871 0.0041115 0.00415371 0.0042054 0.00426662 0.00433744 0.00441794 0.0045082 0.00460833 0.00471842 0.00483859 0.00496896 0.00510964 0.00526074 0.00542239 0.00559466 0.00577766 0.00597144 0.00617609 0.00639165 0.00661825 0.0068561 0.00710564 0.00736779 0.00764418 0.00793748 0.00825145 0.00859028 0.0089568 0.00935141 0.00979832 0.0100624 0.00998956 0.0100559 0.0102187 0.0105086 0.0109749 0.0114681 0.011987 0.012452 0.0127507 0.0129871 0.0131767 0.0133062 0.0134494 0.0135931 0.0137191 0.0138087 0.0138182 0.0138726 0.0139605 0.0139952 0.0139922 0.0139371 0.0138147 0.0136687 0.0135011 0.0133126 0.0131037 0.012903 0.0126973 0.01247 0.012223 0.0119594 0.0116843 0.0114096 0.0110418 0.0106707 0.010317 0.00997501 0.00964302 0.00932077 0.00900854 0.00870677 0.00841592 0.00813641 0.00786859 0.00761273 0.00736907 0.00713778 0.00691899 0.0067128 0.00651926 0.00633841 0.00617025 0.00601478 0.00587197 0.00574179 0.0056242 0.00551914 0.00542658 0.00534647 0.00527877 0.00522343 0.00518043 0.00514973 0.00513132 0.00512518 
0.00405743 0.00406218 0.00407644 0.00410021 0.00413354 0.00417646 0.00422903 0.0042913 0.00436336 0.0044453 0.00453721 0.00463922 0.00475145 0.00487403 0.00500711 0.00515083 0.00530535 0.00547082 0.00564737 0.00583516 0.00603432 0.00624495 0.0064672 0.00670121 0.00694725 0.00720579 0.00747776 0.00776492 0.0080703 0.00839845 0.00875456 0.00913882 0.00951761 0.00995959 0.0102689 0.0102406 0.0104103 0.0106186 0.0109349 0.0113517 0.0118154 0.0122315 0.0126373 0.0130254 0.0133195 0.013483 0.0136165 0.0137714 0.0139274 0.0140679 0.0141874 0.014271 0.0143318 0.0143821 0.0144182 0.0143967 0.0143882 0.0142817 0.0141369 0.013959 0.0137493 0.013509 0.0132703 0.0130452 0.0127967 0.0125271 0.0122397 0.0119379 0.0116301 0.0112828 0.0109089 0.0105442 0.0101882 0.00984114 0.00950389 0.00917723 0.00886189 0.00855842 0.00826725 0.00798871 0.00772303 0.0074704 0.00723093 0.0070047 0.00679175 0.00659209 0.00640571 0.00623258 0.00607264 0.00592585 0.00579213 0.00567142 0.00556364 0.00546873 0.00538662 0.00531726 0.00526058 0.00521654 0.00518511 0.00516626 0.00515998 
0.00407998 0.00408481 0.00409931 0.00412351 0.00415742 0.00420111 0.00425463 0.00431804 0.00439145 0.00447495 0.00456866 0.00467271 0.00478725 0.00491245 0.00504848 0.00519552 0.00535376 0.00552342 0.00570469 0.00589777 0.00610289 0.00632023 0.00655003 0.00679251 0.007048 0.00731697 0.00760034 0.00789984 0.00821873 0.00856275 0.00894199 0.009378 0.00974724 0.0100178 0.0102256 0.0103476 0.0106097 0.0109223 0.0112785 0.0116458 0.0120521 0.0124691 0.0128363 0.0132158 0.0135403 0.0137681 0.013949 0.0141344 0.0143158 0.0144747 0.0146282 0.0147985 0.0148965 0.0149226 0.0149749 0.0149878 0.014941 0.0148338 0.0146851 0.0144942 0.0142607 0.0139872 0.0136935 0.0134538 0.0131803 0.0128835 0.012567 0.0122296 0.0118779 0.0115448 0.0111689 0.010793 0.0104215 0.0100577 0.00970368 0.009361 0.00903064 0.00871327 0.0084093 0.00811903 0.00784264 0.00758022 0.00733184 0.00709752 0.00687722 0.00667092 0.00647854 0.00630001 0.00613524 0.00598413 0.00584658 0.00572249 0.00561176 0.00551431 0.00543003 0.00535886 0.00530073 0.00525557 0.00522335 0.00520403 0.0051976 
0.00410412 0.00410904 0.00412382 0.00414846 0.00418301 0.00422752 0.00428205 0.00434669 0.00442154 0.00450671 0.00460235 0.00470859 0.00482562 0.00495363 0.00509283 0.00524344 0.0054057 0.00557988 0.00576625 0.0059651 0.00617674 0.0064015 0.00663971 0.00689178 0.00715813 0.00743934 0.00773628 0.00805055 0.00838511 0.0087452 0.00913826 0.0095619 0.009918 0.0101269 0.0103073 0.0104916 0.0107611 0.0111229 0.0114932 0.0118623 0.012263 0.0126652 0.013055 0.0134324 0.0137756 0.0140646 0.0143132 0.0145517 0.0147644 0.0149199 0.0151 0.015271 0.0154007 0.0154942 0.0155786 0.015675 0.0156079 0.0154806 0.0153274 0.015122 0.0148596 0.0145644 0.0142412 0.0139324 0.0136242 0.0132964 0.0129506 0.0125716 0.0122002 0.0118447 0.0114606 0.0110681 0.010677 0.0102932 0.00991991 0.00955925 0.00921229 0.00887969 0.0085618 0.00825883 0.00797085 0.00769789 0.00743992 0.00719689 0.0069687 0.00675526 0.00655645 0.00637213 0.00620217 0.00604643 0.00590478 0.00577707 0.00566319 0.005563 0.00547641 0.00540331 0.00534362 0.00529727 0.0052642 0.00524438 0.00523777 
0.00412973 0.00413475 0.0041498 0.00417492 0.00421014 0.00425552 0.00431114 0.00437708 0.00445347 0.00454042 0.00463809 0.00474667 0.00486634 0.00499733 0.00513989 0.00529429 0.00546083 0.00563983 0.00583164 0.00603666 0.00625531 0.00648808 0.00673551 0.00699821 0.0072769 0.00757242 0.00788587 0.0082188 0.00857366 0.00895565 0.00938024 0.00975257 0.0100347 0.0102733 0.0104887 0.0107085 0.0110191 0.0113973 0.0117585 0.0121137 0.0125145 0.0129167 0.0133129 0.0136927 0.0140475 0.0143895 0.0147133 0.01502 0.0153017 0.0155132 0.0156333 0.0158353 0.0160006 0.0161254 0.0162227 0.0163164 0.0163473 0.0162139 0.0160803 0.0158621 0.015543 0.0152178 0.0148628 0.01449 0.0141319 0.0137714 0.0134088 0.0130017 0.0126088 0.0122073 0.0117936 0.0113732 0.0109557 0.0105473 0.0101519 0.00977106 0.00940587 0.00905675 0.00872387 0.00840727 0.00810691 0.00782269 0.00755451 0.00730221 0.00706563 0.0068446 0.00663895 0.00644848 0.00627302 0.00611237 0.00596636 0.00583482 0.00571759 0.00561451 0.00552547 0.00545032 0.00538898 0.00534136 0.0053074 0.00528704 0.00528025 
0.00415665 0.00416177 0.00417712 0.00420274 0.00423867 0.00428497 0.00434173 0.00440904 0.00448704 0.00457586 0.00467569 0.00478671 0.00490916 0.00504329 0.00518938 0.00534776 0.00551878 0.00570283 0.00590035 0.00611183 0.00633785 0.00657905 0.00683622 0.00711034 0.00740259 0.0077145 0.00804793 0.00840491 0.00878647 0.00919052 0.0096146 0.00997406 0.0102341 0.0104846 0.010733 0.0110062 0.0113457 0.0117209 0.0120584 0.0123869 0.0127838 0.0132105 0.0136197 0.014017 0.0143964 0.0147841 0.0151776 0.0155506 0.0158919 0.0162034 0.0163256 0.0164857 0.0166935 0.0168376 0.0169447 0.0170408 0.0171264 0.017012 0.0168244 0.0166267 0.0162887 0.015891 0.015477 0.0150708 0.0146719 0.0142792 0.0139016 0.013518 0.0130635 0.0126178 0.0121673 0.011708 0.0112563 0.0108187 0.010398 0.00999504 0.00961014 0.00924333 0.00889448 0.00856343 0.00824996 0.00795385 0.00767488 0.00741281 0.00716739 0.00693837 0.00672552 0.00652859 0.00634733 0.00618152 0.00603094 0.00589537 0.00577461 0.0056685 0.00557687 0.00549958 0.00543651 0.00538756 0.00535265 0.00533173 0.00532476 
0.00418473 0.00418994 0.00420561 0.00423176 0.00426843 0.00431569 0.00437364 0.00444239 0.00452207 0.00461285 0.00471491 0.00482849 0.00495383 0.00509122 0.00524098 0.00540349 0.00557915 0.00576841 0.0059718 0.0061899 0.00642341 0.00667316 0.00694019 0.00722588 0.00753211 0.00786154 0.00821798 0.00860602 0.00902812 0.00947263 0.00987466 0.0102241 0.0105075 0.0107525 0.0110275 0.0113442 0.0116859 0.0120677 0.0124002 0.0127212 0.0131019 0.0135476 0.0139776 0.0143848 0.014844 0.0152797 0.0157226 0.0161526 0.0165438 0.0168572 0.0171336 0.017319 0.0175063 0.0176744 0.0177951 0.0178736 0.0178968 0.0178168 0.0175563 0.0172945 0.0169912 0.0165569 0.0161182 0.0156755 0.0152345 0.0148001 0.0143806 0.013993 0.0135487 0.0130704 0.0125852 0.0120691 0.0115748 0.0111041 0.0106559 0.0102293 0.00982356 0.00943813 0.00907251 0.0087263 0.00839909 0.00809054 0.00780029 0.00752799 0.00727333 0.00703598 0.00681561 0.00661193 0.00642463 0.00625344 0.00609808 0.00595831 0.00583389 0.00572462 0.0056303 0.00555078 0.0054859 0.00543556 0.00539967 0.00537817 0.005371 
0.00421379 0.00421912 0.00423511 0.0042618 0.00429924 0.00434751 0.0044067 0.00447693 0.00455836 0.00465116 0.00475555 0.00487176 0.00500008 0.00514083 0.00529437 0.00546111 0.0056415 0.00583606 0.00604536 0.00627007 0.00651096 0.00676899 0.00704538 0.00734181 0.00766078 0.00800631 0.00838495 0.00880744 0.00929013 0.00985272 0.0102632 0.0105184 0.0107816 0.0110424 0.0113435 0.0116923 0.0120647 0.0124337 0.0127882 0.0131522 0.0135283 0.0139647 0.0144261 0.01488 0.0153619 0.0158445 0.016338 0.0168293 0.0172962 0.0176877 0.0179999 0.0182585 0.018464 0.0186332 0.018753 0.0188117 0.0187894 0.0186454 0.0183864 0.0180691 0.0176935 0.0172611 0.0167951 0.0163108 0.0158216 0.015337 0.0148628 0.0144076 0.013961 0.0134796 0.0129871 0.0124436 0.0119032 0.0113986 0.0109225 0.0104717 0.0100444 0.00963975 0.00925675 0.00889481 0.00855336 0.00823189 0.00792993 0.00764703 0.00738279 0.00713679 0.00690864 0.00669797 0.00650442 0.00632766 0.00616736 0.00602325 0.00589504 0.00578249 0.0056854 0.00560356 0.00553682 0.00548505 0.00544815 0.00542603 0.00541867 
0.00424368 0.00424912 0.00426545 0.0042927 0.00433094 0.00438023 0.0044407 0.00451247 0.00459569 0.00469058 0.00479735 0.00491627 0.00504765 0.00519184 0.00534922 0.00552024 0.00570541 0.00590526 0.00612041 0.00635156 0.00659949 0.00686516 0.00714976 0.00745498 0.00778338 0.00813927 0.00853032 0.00897133 0.00949451 0.0100709 0.0105611 0.0108198 0.0110564 0.0113074 0.0116128 0.0119886 0.0123788 0.012766 0.0131862 0.0136075 0.0140337 0.0144971 0.0149951 0.0155208 0.0160089 0.0165012 0.0170026 0.0175483 0.0180764 0.0185746 0.0189227 0.0191745 0.0194589 0.0196815 0.0198241 0.0198793 0.0198209 0.0196399 0.0193435 0.018969 0.0185278 0.0180408 0.0175242 0.0169858 0.0164384 0.0158966 0.0153687 0.0148585 0.0143578 0.0138512 0.0133451 0.0127977 0.0122303 0.0116973 0.0111948 0.01072 0.0102711 0.00984679 0.00944599 0.00906788 0.00871176 0.00837699 0.00806297 0.00776917 0.00749506 0.00724016 0.007004 0.00678615 0.00658617 0.00640369 0.00623833 0.00608975 0.00595765 0.00584174 0.0057418 0.00565759 0.00558894 0.00553569 0.00549775 0.00547501 0.00546744 