<?xml version="1.0"?>
<VTKFile type="StructuredGrid" version="0.1">
    <StructuredGrid WholeExtent="0 100 0 100 0 0">
        <Piece Extent="0 100 0 100 0 0">
            <Points>
                <DataArray type="Float64" NumberOfComponents="3" format="ascii">
-15 -15 0
-15 -14.7 0
-15 -14.4 0
-15 -14.1 0
-15 -13.8 0
-15 -13.5 0
-15 -13.2 0
-15 -12.9 0
-15 -12.6 0
-15 -12.3 0
-15 -12 0
-15 -11.7 0
-15 -11.4 0
-15 -11.1 0
-15 -10.8 0
-15 -10.5 0
-15 -10.2 0
-15 -9.9 0
-15 -9.6 0
-15 -9.3 0
-15 -9 0
-15 -8.7 0
-15 -8.4 0
-15 -8.1 0
-15 -7.8 0
-15 -7.5 0
-15 -7.2 0
-15 -6.9 0
-15 -6.6 0
-15 -6.3 0
-15 -6 0
-15 -5.7 0
-15 -5.4 0
-15 -5.1 0
-15 -4.8 0
-15 -4.5 0
-15 -4.2 0
-15 -3.9 0
-15 -3.6 0
-15 -3.3 0
-15 -3 0
-15 -2.7 0
-15 -2.4 0
-15 -2.1 0
-15 -1.8 0
-15 -1.5 0
-15 -1.2 0
-15 -0.9 0
-15 -0.6 0
-15 -0.3 0
-15 0 0
-15 0.3 0
-15 0.6 0
-15 0.9 0
-15 1.2 0
-15 1.5 0
-15 1.8 0
-15 2.1 0
-15 2.4 0
-15 2.7 0
-15 3 0
-15 3.3 0
-15 3.6 0
-15 3.9 0
-15 4.2 0
-15 4.5 0
-15 4.8 0
-15 5.1 0
-15 5.4 0
-15 5.7 0
-15 6 0
-15 6.3 0
-15 6.6 0
-15 6.9 0
-15 7.2 0
-15 7.5 0
-15 7.8 0
-15 8.1 0
-15 8.4 0
-15 8.7 0
-15 9 0
-15 9.3 0
-15 9.6 0
-15 9.9 0
-15 10.2 0
-15 10.5 0
-15 10.8 0
-15 11.1 0
-15 11.4 0
-15 11.7 0
-15 12 0
-15 12.3 0
-15 12.6 0
-15 12.9 0
-15 13.2 0
-15 13.5 0
-15 13.8 0
-15 14.1 0
-15 14.4 0
-15 14.7 0
-15 15 0
-14.7 -15 0
-14.7 -14.7 0
-14.7 -14.4 0
-14.7 -14.1 0
-14.7 -13.8 0
-14.7 -13.5 0
-14.7 -13.2 0
-14.7 -12.9 0
-14.7 -12.6 0
-14.7 -12.3 0
-14.7 -12 0
-14.7 -11.7 0
-14.7 -11.4 0
-14.7 -11.1 0
-14.7 -10.8 0
-14.7 -10.5 0
-14.7 -10.2 0
-14.7 -9.9 0
-14.7 -9.6 0
-14.7 -9.3 0
-14.7 -9 0
-14.7 -8.7 0
-14.7 -8.4 0
-14.7 -8.1 0
-14.7 -7.8 0
-14.7 -7.5 0
-14.7 -7.2 0
-14.7 -6.9 0
-14.7 -6.6 0
-14.7 -6.3 0
-14.7 -6 0
-14.7 -5.7 0
-14.7 -5.4 0
-14.7 -5.1 0
-14.7 -4.8 0
-14.7 -4.5 0
-14.7 -4.2 0
-14.7 -3.9 0
-14.7 -3.6 0
-14.7 -3.3 0
-14.7 -3 0
-14.7 -2.7 0
-14.7 -2.4 0
-14.7 -2.1 0
-14.7 -1.8 0
-14.7 -1.5 0
-14.7 -1.2 0
-14.7 -0.9 0
-14.7 -0.6 0
-14.7 -0.3 0
-14.7 0 0
-14.7 0.3 0
-14.7 0.6 0
-14.7 0.9 0
-14.7 1.2 0
-14.7 1.5 0
-14.7 1.8 0
-14.7 2.1 0
-14.7 2.4 0
-14.7 2.7 0
-14.7 3 0
-14.7 3.3 0
-14.7 3.6 0
-14.7 3.9 0
-14.7 4.2 0
-14.7 4.5 0
-14.7 4.8 0
-14.7 5.1 0
-14.7 5.4 0
-14.7 5.7 0
-14.7 6 0
-14.7 6.3 0
-14.7 6.6 0
-14.7 6.9 0
-14.7 7.2 0
-14.7 7.5 0
-14.7 7.8 0
-14.7 8.1 0
-14.7 8.4 0
-14.7 8.7 0
-14.7 9 0
-14.7 9.3 0
-14.7 9.6 0
-14.7 9.9 0
-14.7 10.2 0
-14.7 10.5 0
-14.7 10.8 0
-14.7 11.1 0
-14.7 11.4 0
-14.7 11.7 0
-14.7 12 0
-14.7 12.3 0
-14.7 12.6 0
-14.7 12.9 0
-14.7 13.2 0
-14.7 13.5 0
-14.7 13.8 0
-14.7 14.1 0
-14.7 14.4 0
-14.7 14.7 0
-14.7 15 0
-14.4 -15 0
-14.4 -14.7 0
-14.4 -14.4 0
-14.4 -14.1 0
-14.4 -13.8 0
-14.4 -13.5 0
-14.4 -13.2 0
-14.4 -12.9 0
-14.4 -12.6 0
-14.4 -12.3 0
-14.4 -12 0
-14.4 -11.7 0
-14.4 -11.4 0
-14.4 -11.1 0
-14.4 -10.8 0
-14.4 -10.5 0
-14.4 -10.2 0
-14.4 -9.9 0
-14.4 -9.6 0
-14.4 -9.3 0
-14.4 -9 0
-14.4 -8.7 0
-14.4 -8.4 0
-14.4 -8.1 0
-14.4 -7.8 0
-14.4 -7.5 0
-14.4 -7.2 0
-14.4 -6.9 0
-14.4 -6.6 0
-14.4 -6.3 0
-14.4 -6 0
-14.4 -5.7 0
-14.4 -5.4 0
-14.4 -5.1 0
-14.4 -4.8 0
-14.4 -4.5 0
-14.4 -4.2 0
-14.4 -3.9 0
-14.4 -3.6 0
-14.4 -3.3 0
-14.4 -3 0
-14.4 -2.7 0
-14.4 -2.4 0
-14.4 -2.1 0
-14.4 -1.8 0
-14.4 -1.5 0
-14.4 -1.2 0
-14.4 -0.9 0
-14.4 -0.6 0
-14.4 -0.3 0
-14.4 0 0
-14.4 0.3 0
-14.4 0.6 0
-14.4 0.9 0
-14.4 1.2 0
-14.4 1.5 0
-14.4 1.8 0
-14.4 2.1 0
-14.4 2.4 0
-14.4 2.7 0
-14.4 3 0
-14.4 3.3 0
-14.4 3.6 0
-14.4 3.9 0
-14.4 4.2 0
-14.4 4.5 0
-14.4 4.8 0
-14.4 5.1 0
-14.4 5.4 0
-14.4 5.7 0
-14.4 6 0
-14.4 6.3 0
-14.4 6.6 0
-14.4 6.9 0
-14.4 7.2 0
-14.4 7.5 0
-14.4 7.8 0
-14.4 8.1 0
-14.4 8.4 0
-14.4 8.7 0
-14.4 9 0
-14.4 9.3 0
-14.4 9.6 0
-14.4 9.9 0
-14.4 10.2 0
-14.4 10.5 0
-14.4 10.8 0
-14.4 11.1 0
-14.4 11.4 0
-14.4 11.7 0
-14.4 12 0
-14.4 12.3 0
-14.4 12.6 0
-14.4 12.9 0
-14.4 13.2 0
-14.4 13.5 0
-14.4 13.8 0
-14.4 14.1 0
-14.4 14.4 0
-14.4 14.7 0
-14.4 15 0
-14.1 -15 0
-14.1 -14.7 0
-14.1 -14.4 0
-14.1 -14.1 0
-14.1 -13.8 0
-14.1 -13.5 0
-14.1 -13.2 0
-14.1 -12.9 0
-14.1 -12.6 0
-14.1 -12.3 0
-14.1 -12 0
-14.1 -11.7 0
-14.1 -11.4 0
-14.1 -11.1 0
-14.1 -10.8 0
-14.1 -10.5 0
-14.1 -10.2 0
-14.1 -9.9 0
-14.1 -9.6 0
-14.1 -9.3 0
-14.1 -9 0
-14.1 -8.7 0
-14.1 -8.4 0
-14.1 -8.1 0
-14.1 -7.8 0
-14.1 -7.5 0
-14.1 -7.2 0
-14.1 -6.9 0
-14.1 -6.6 0
-14.1 -6.3 0
-14.1 -6 0
-14.1 -5.7 0
-14.1 -5.4 0
-14.1 -5.1 0
-14.1 -4.8 0
-14.1 -4.5 0
-14.1 -4.2 0
-14.1 -3.9 0
-14.1 -3.6 0
-14.1 -3.3 0
-14.1 -3 0
-14.1 -2.7 0
-14.1 -2.4 0
-14.1 -2.1 0
-14.1 -1.8 0
-14.1 -1.5 0
-14.1 -1.2 0
-14.1 -0.9 0
-14.1 -0.6 0
-14.1 -0.3 0
-14.1 0 0
-14.1 0.3 0
-14.1 0.6 0
-14.1 0.9 0
-14.1 1.2 0
-14.1 1.5 0
-14.1 1.8 0
-14.1 2.1 0
-14.1 2.4 0
-14.1 2.7 0
-14.1 3 0
-14.1 3.3 0
-14.1 3.6 0
-14.1 3.9 0
-14.1 4.2 0
-14.1 4.5 0
-14.1 4.8 0
-14.1 5.1 0
-14.1 5.4 0
-14.1 5.7 0
-14.1 6 0
-14.1 6.3 0
-14.1 6.6 0
-14.1 6.9 0
-14.1 7.2 0
-14.1 7.5 0
-14.1 7.8 0
-14.1 8.1 0
-14.1 8.4 0
-14.1 8.7 0
-14.1 9 0
-14.1 9.3 0
-14.1 9.6 0
-14.1 9.9 0
-14.1 10.2 0
-14.1 10.5 0
-14.1 10.8 0
-14.1 11.1 0
-14.1 11.4 0
-14.1 11.7 0
-14.1 12 0
-14.1 12.3 0
-14.1 12.6 0
-14.1 12.9 0
-14.1 13.2 0
-14.1 13.5 0
-14.1 13.8 0
-14.1 14.1 0
-14.1 14.4 0
-14.1 14.7 0
-14.1 15 0
-13.8 -15 0
-13.8 -14.7 0
-13.8 -14.4 0
-13.8 -14.1 0
-13.8 -13.8 0
-13.8 -13.5 0
-13.8 -13.2 0
-13.8 -12.9 0
-13.8 -12.6 0
-13.8 -12.3 0
-13.8 -12 0
-13.8 -11.7 0
-13.8 -11.4 0
-13.8 -11.1 0
-13.8 -10.8 0
-13.8 -10.5 0
-13.8 -10.2 0
-13.8 -9.9 0
-13.8 -9.6 0
-13.8 -9.3 0
-13.8 -9 0
-13.8 -8.7 0
-13.8 -8.4 0
-13.8 -8.1 0
-13.8 -7.8 0
-13.8 -7.5 0
-13.8 -7.2 0
-13.8 -6.9 0
-13.8 -6.6 0
-13.8 -6.3 0
-13.8 -6 0
-13.8 -5.7 0
-13.8 -5.4 0
-13.8 -5.1 0
-13.8 -4.8 0
-13.8 -4.5 0
-13.8 -4.2 0
-13.8 -3.9 0
-13.8 -3.6 0
-13.8 -3.3 0
-13.8 -3 0
-13.8 -2.7 0
-13.8 -2.4 0
-13.8 -2.1 0
-13.8 -1.8 0
-13.8 -1.5 0
-13.8 -1.2 0
-13.8 -0.9 0
-13.8 -0.6 0
-13.8 -0.3 0
-13.8 0 0
-13.8 0.3 0
-13.8 0.6 0
-13.8 0.9 0
-13.8 1.2 0
-13.8 1.5 0
-13.8 1.8 0
-13.8 2.1 0
-13.8 2.4 0
-13.8 2.7 0
-13.8 3 0
-13.8 3.3 0
-13.8 3.6 0
-13.8 3.9 0
-13.8 4.2 0
-13.8 4.5 0
-13.8 4.8 0
-13.8 5.1 0
-13.8 5.4 0
-13.8 5.7 0
-13.8 6 0
-13.8 6.3 0
-13.8 6.6 0
-13.8 6.9 0
-13.8 7.2 0
-13.8 7.5 0
-13.8 7.8 0
-13.8 8.1 0
-13.8 8.4 0
-13.8 8.7 0
-13.8 9 0
-13.8 9.3 0
-13.8 9.6 0
-13.8 9.9 0
-13.8 10.2 0
-13.8 10.5 0
-13.8 10.8 0
-13.8 11.1 0
-13.8 11.4 0
-13.8 11.7 0
-13.8 12 0
-13.8 12.3 0
-13.8 12.6 0
-13.8 12.9 0
-13.8 13.2 0
-13.8 13.5 0
-13.8 13.8 0
-13.8 14.1 0
-13.8 14.4 0
-13.8 14.7 0
-13.8 15 0
-13.5 -15 0
-13.5 -14.7 0
-13.5 -14.4 0
-13.5 -14.1 0
-13.5 -13.8 0
-13.5 -13.5 0
-13.5 -13.2 0
-13.5 -12.9 0
-13.5 -12.6 0
-13.5 -12.3 0
-13.5 -12 0
-13.5 -11.7 0
-13.5 -11.4 0
-13.5 -11.1 0
-13.5 -10.8 0
-13.5 -10.5 0
-13.5 -10.2 0
-13.5 -9.9 0
-13.5 -9.6 0
-13.5 -9.3 0
-13.5 -9 0
-13.5 -8.7 0
-13.5 -8.4 0
-13.5 -8.1 0
-13.5 -7.8 0
-13.5 -7.5 0
-13.5 -7.2 0
-13.5 -6.9 0
-13.5 -6.6 0
-13.5 -6.3 0
-13.5 -6 0
-13.5 -5.7 0
-13.5 -5.4 0
-13.5 -5.1 0
-13.5 -4.8 0
-13.5 -4.5 0
-13.5 -4.2 0
-13.5 -3.9 0
-13.5 -3.6 0
-13.5 -3.3 0
-13.5 -3 0
-13.5 -2.7 0
-13.5 -2.4 0
-13.5 -2.1 0
-13.5 -1.8 0
-13.5 -1.5 0
-13.5 -1.2 0
-13.5 -0.9 0
-13.5 -0.6 0
-13.5 -0.3 0
-13.5 0 0
-13.5 0.3 0
-13.5 0.6 0
-13.5 0.9 0
-13.5 1.2 0
-13.5 1.5 0
-13.5 1.8 0
-13.5 2.1 0
-13.5 2.4 0
-13.5 2.7 0
-13.5 3 0
-13.5 3.3 0
-13.5 3.6 0
-13.5 3.9 0
-13.5 4.2 0
-13.5 4.5 0
-13.5 4.8 0
-13.5 5.1 0
-13.5 5.4 0
-13.5 5.7 0
-13.5 6 0
-13.5 6.3 0
-13.5 6.6 0
-13.5 6.9 0
-13.5 7.2 0
-13.5 7.5 0
-13.5 7.8 0
-13.5 8.1 0
-13.5 8.4 0
-13.5 8.7 0
-13.5 9 0
-13.5 9.3 0
-13.5 9.6 0
-13.5 9.9 0
-13.5 10.2 0
-13.5 10.5 0
-13.5 10.8 0
-13.5 11.1 0
-13.5 11.4 0
-13.5 11.7 0
-13.5 12 0
-13.5 12.3 0
-13.5 12.6 0
-13.5 12.9 0
-13.5 13.2 0
-13.5 13.5 0
-13.5 13.8 0
-13.5 14.1 0
-13.5 14.4 0
-13.5 14.7 0
-13.5 15 0
-13.2 -15 0
-13.2 -14.7 0
-13.2 -14.4 0
-13.2 -14.1 0
-13.2 -13.8 0
-13.2 -13.5 0
-13.2 -13.2 0
-13.2 -12.9 0
-13.2 -12.6 0
-13.2 -12.3 0
-13.2 -12 0
-13.2 -11.7 0
-13.2 -11.4 0
-13.2 -11.1 0
-13.2 -10.8 0
-13.2 -10.5 0
-13.2 -10.2 0
-13.2 -9.9 0
-13.2 -9.6 0
-13.2 -9.3 0
-13.2 -9 0
-13.2 -8.7 0
-13.2 -8.4 0
-13.2 -8.1 0
-13.2 -7.8 0
-13.2 -7.5 0
-13.2 -7.2 0
-13.2 -6.9 0
-13.2 -6.6 0
-13.2 -6.3 0
-13.2 -6 0
-13.2 -5.7 0
-13.2 -5.4 0
-13.2 -5.1 0
-13.2 -4.8 0
-13.2 -4.5 0
-13.2 -4.2 0
-13.2 -3.9 0
-13.2 -3.6 0
-13.2 -3.3 0
-13.2 -3 0
-13.2 -2.7 0
-13.2 -2.4 0
-13.2 -2.1 0
-13.2 -1.8 0
-13.2 -1.5 0
-13.2 -1.2 0
-13.2 -0.9 0
-13.2 -0.6 0
-13.2 -0.3 0
-13.2 0 0
-13.2 0.3 0
-13.2 0.6 0
-13.2 0.9 0
-13.2 1.2 0
-13.2 1.5 0
-13.2 1.8 0
-13.2 2.1 0
-13.2 2.4 0
-13.2 2.7 0
-13.2 3 0
-13.2 3.3 0
-13.2 3.6 0
-13.2 3.9 0
-13.2 4.2 0
-13.2 4.5 0
-13.2 4.8 0
-13.2 5.1 0
-13.2 5.4 0
-13.2 5.7 0
-13.2 6 0
-13.2 6.3 0
-13.2 6.6 0
-13.2 6.9 0
-13.2 7.2 0
-13.2 7.5 0
-13.2 7.8 0
-13.2 8.1 0
-13.2 8.4 0
-13.2 8.7 0
-13.2 9 0
-13.2 9.3 0
-13.2 9.6 0
-13.2 9.9 0
-13.2 10.2 0
-13.2 10.5 0
-13.2 10.8 0
-13.2 11.1 0
-13.2 11.4 0
-13.2 11.7 0
-13.2 12 0
-13.2 12.3 0
-13.2 12.6 0
-13.2 12.9 0
-13.2 13.2 0
-13.2 13.5 0
-13.2 13.8 0
-13.2 14.1 0
-13.2 14.4 0
-13.2 14.7 0
-13.2 15 0
-12.9 -15 0
-12.9 -14.7 0
-12.9 -14.4 0
-12.9 -14.1 0
-12.9 -13.8 0
-12.9 -13.5 0
-12.9 -13.2 0
-12.9 -12.9 0
-12.9 -12.6 0
-12.9 -12.3 0
-12.9 -12 0
-12.9 -11.7 0
-12.9 -11.4 0
-12.9 -11.1 0
-12.9 -10.8 0
-12.9 -10.5 0
-12.9 -10.2 0
-12.9 -9.9 0
-12.9 -9.6 0
-12.9 -9.3 0
-12.9 -9 0
-12.9 -8.7 0
-12.9 -8.4 0
-12.9 -8.1 0
-12.9 -7.8 0
-12.9 -7.5 0
-12.9 -7.2 0
-12.9 -6.9 0
-12.9 -6.6 0
-12.9 -6.3 0
-12.9 -6 0
-12.9 -5.7 0
-12.9 -5.4 0
-12.9 -5.1 0
-12.9 -4.8 0
-12.9 -4.5 0
-12.9 -4.2 0
-12.9 -3.9 0
-12.9 -3.6 0
-12.9 -3.3 0
-12.9 -3 0
-12.9 -2.7 0
-12.9 -2.4 0
-12.9 -2.1 0
-12.9 -1.8 0
-12.9 -1.5 0
-12.9 -1.2 0
-12.9 -0.9 0
-12.9 -0.6 0
-12.9 -0.3 0
-12.9 0 0
-12.9 0.3 0
-12.9 0.6 0
-12.9 0.9 0
-12.9 1.2 0
-12.9 1.5 0
-12.9 1.8 0
-12.9 2.1 0
-12.9 2.4 0
-12.9 2.7 0
-12.9 3 0
-12.9 3.3 0
-12.9 3.6 0
-12.9 3.9 0
-12.9 4.2 0
-12.9 4.5 0
-12.9 4.8 0
-12.9 5.1 0
-12.9 5.4 0
-12.9 5.7 0
-12.9 6 0
-12.9 6.3 0
-12.9 6.6 0
-12.9 6.9 0
-12.9 7.2 0
-12.9 7.5 0
-12.9 7.8 0
-12.9 8.1 0
-12.9 8.4 0
-12.9 8.7 0
-12.9 9 0
[...]
            <PointData>
                <DataArray type="Float64" Name="c1" format="ascii">
2.94459e-18 3.62865e-18 5.96174e-18 1.08858e-17 2.03299e-17 3.78565e-17 6.9802e-17 1.27208e-16 2.29007e-16 4.07183e-16 7.14979e-16 1.23972e-15 2.12252e-15 3.58791e-15 5.98778e-15 9.86486e-15 1.6043e-14 2.57524e-14 4.07996e-14 6.37922e-14 9.84286e-14 1.4986e-13 2.25126e-13 3.33665e-13 4.87875e-13 7.03701e-13 1.00119e-12 1.40495e-12 1.94443e-12 2.65386e-12 3.57178e-12 4.74007e-12 6.20222e-12 8.00095e-12 1.01751e-11 1.2756e-11 1.57629e-11 1.9199e-11 2.30472e-11 2.72665e-11 3.179e-11 3.65241e-11 4.13501e-11 4.61279e-11 5.07019e-11 5.4909e-11 5.85881e-11 6.15902e-11 6.37882e-11 6.50864e-11 6.5427e-11 6.47947e-11 6.32175e-11 6.0765e-11 5.75431e-11 5.36863e-11 4.93484e-11 4.46924e-11 3.98804e-11 3.50643e-11 3.03786e-11 2.59349e-11 2.18192e-11 1.80905e-11 1.47824e-11 1.19054e-11 9.45095e-12 7.39545e-12 5.70479e-12 4.3384e-12 3.25284e-12 2.40474e-12 1.75299e-12 1.26015e-12 8.93372e-13 6.24653e-13 4.30799e-13 2.93069e-13 1.96679e-13 1.30219e-13 8.50636e-14 5.48282e-14 3.48728e-14 2.18888e-14 1.35596e-14 8.29061e-15 5.00355e-15 2.98094e-15 1.75324e-15 1.01807e-15 5.83701e-16 3.30457e-16 1.84749e-16 1.02009e-16 5.56373e-17 2.99903e-17 1.60052e-17 8.51419e-18 4.62997e-18 2.7978e-18 2.262e-18 
3.62865e-18 4.47149e-18 7.3461e-18 1.34129e-17 2.50487e-17 4.66423e-17 8.60006e-17 1.56728e-16 2.82151e-16 5.01682e-16 8.80928e-16 1.52751e-15 2.61533e-15 4.42117e-15 7.37877e-15 1.21573e-14 1.97724e-14 3.17414e-14 5.02922e-14 7.86415e-14 1.21352e-13 1.84781e-13 2.77617e-13 4.11512e-13 6.01775e-13 8.68099e-13 1.23525e-12 1.73364e-12 2.39966e-12 3.27564e-12 4.40926e-12 5.85232e-12 7.65865e-12 9.88117e-12 1.2568e-11 1.5758e-11 1.94751e-11 2.37235e-11 2.8482e-11 3.37002e-11 3.92952e-11 4.51514e-11 5.11218e-11 5.70331e-11 6.26925e-11 6.78982e-11 7.24505e-11 7.61648e-11 7.88839e-11 8.04892e-11 8.09091e-11 8.01246e-11 7.81707e-11 7.51336e-11 7.11445e-11 6.63703e-11 6.10014e-11 5.52397e-11 4.92859e-11 4.33281e-11 3.75326e-11 3.20375e-11 2.6949e-11 2.23399e-11 1.82515e-11 1.46967e-11 1.16646e-11 9.12596e-12 7.03836e-12 5.35153e-12 4.0117e-12 2.96519e-12 2.16113e-12 1.55326e-12 1.10097e-12 7.69671e-13 5.3072e-13 3.60984e-13 2.42218e-13 1.60344e-13 1.04727e-13 6.74927e-14 4.29221e-14 2.69378e-14 1.66852e-14 1.02006e-14 6.15561e-15 3.66695e-15 2.15653e-15 1.25215e-15 7.1786e-16 4.06385e-16 2.27187e-16 1.25436e-16 6.84119e-17 3.68752e-17 1.96792e-17 1.04685e-17 5.69275e-18 3.44005e-18 2.78128e-18 
5.96174e-18 7.3461e-18 1.20675e-17 2.20318e-17 4.11421e-17 7.66064e-17 1.41247e-16 2.57408e-16 4.6341e-16 8.23997e-16 1.44697e-15 2.50917e-15 4.29643e-15 7.26375e-15 1.21243e-14 1.99786e-14 3.24977e-14 5.21781e-14 8.26875e-14 1.29323e-13 1.996e-13 3.03993e-13 4.56827e-13 6.7732e-13 9.9073e-13 1.42957e-12 2.03474e-12 2.85649e-12 3.95501e-12 5.40032e-12 7.27136e-12 9.65396e-12 1.26374e-11 1.63095e-11 2.07502e-11 2.60242e-11 3.21718e-11 3.92002e-11 4.70748e-11 5.57125e-11 6.49763e-11 7.46747e-11 8.45642e-11 9.43574e-11 1.03734e-10 1.1236e-10 1.19903e-10 1.26057e-10 1.30561e-10 1.33218e-10 1.33908e-10 1.32602e-10 1.29356e-10 1.24315e-10 1.17698e-10 1.0978e-10 1.00879e-10 9.13298e-11 8.14656e-11 7.15981e-11 6.20029e-11 5.29087e-11 4.44905e-11 3.68686e-11 3.01106e-11 2.42371e-11 1.92296e-11 1.50388e-11 1.15941e-11 8.81205e-12 6.60328e-12 4.87884e-12 3.55451e-12 2.55376e-12 1.80946e-12 1.26451e-12 8.71623e-13 5.92656e-13 3.97537e-13 2.63078e-13 1.71774e-13 1.1067e-13 7.03611e-14 4.41468e-14 2.73378e-14 1.67092e-14 1.00811e-14 6.00422e-15 3.53044e-15 2.04955e-15 1.17484e-15 6.64998e-16 3.71722e-16 2.05218e-16 1.11916e-16 6.0321e-17 3.21902e-17 1.71234e-17 9.3116e-18 5.62693e-18 4.54942e-18 
1.08858e-17 1.34129e-17 2.20318e-17 4.02209e-17 7.51055e-17 1.39843e-16 2.57842e-16 4.69898e-16 8.4598e-16 1.50432e-15 2.64181e-15 4.58151e-15 7.84566e-15 1.32658e-14 2.21455e-14 3.64971e-14 5.93769e-14 9.53523e-14 1.51136e-13 2.36425e-13 3.64985e-13 5.5601e-13 8.35757e-13 1.23947e-12 1.8135e-12 2.61752e-12 3.72666e-12 5.2333e-12 7.24809e-12 9.89989e-12 1.33341e-11 1.77088e-11 2.31888e-11 2.99362e-11 3.8099e-11 4.77969e-11 5.9105e-11 7.20376e-11 8.6532e-11 1.02435e-10 1.19496e-10 1.37362e-10 1.55584e-10 1.73631e-10 1.90915e-10 2.06814e-10 2.20718e-10 2.32061e-10 2.40359e-10 2.4525e-10 2.46513e-10 2.44093e-10 2.38096e-10 2.28789e-10 2.16575e-10 2.01968e-10 1.85553e-10 1.67948e-10 1.49769e-10 1.3159e-10 1.1392e-10 9.71785e-11 8.16882e-11 6.76691e-11 5.52446e-11 4.44512e-11 3.52533e-11 2.75593e-11 2.12382e-11 1.61354e-11 1.20861e-11 8.92616e-12 6.50058e-12 4.66852e-12 3.30658e-12 2.30986e-12 1.59158e-12 1.0818e-12 7.25382e-13 4.79873e-13 3.13226e-13 2.01741e-13 1.28224e-13 8.04291e-14 4.97923e-14 3.04261e-14 1.83527e-14 1.09283e-14 6.42452e-15 3.729e-15 2.13718e-15 1.20954e-15 6.76025e-16 3.73175e-16 2.03493e-16 1.09671e-16 5.85225e-17 3.11296e-17 1.69277e-17 1.02292e-17 8.27043e-18 
2.03299e-17 2.50487e-17 4.11421e-17 7.51055e-17 1.40243e-16 2.61127e-16 4.81472e-16 8.77474e-16 1.57983e-15 2.80944e-15 4.93419e-15 8.55785e-15 1.46566e-14 2.47852e-14 4.13818e-14 6.82105e-14 1.10991e-13 1.78272e-13 2.82624e-13 4.42212e-13 6.82835e-13 1.04047e-12 1.56438e-12 2.32068e-12 3.3964e-12 4.90365e-12 6.98363e-12 9.81005e-12 1.35911e-11 1.85696e-11 2.50193e-11 3.32386e-11 4.35382e-11 5.62249e-11 7.15786e-11 8.98262e-11 1.11111e-10 1.35462e-10 1.62763e-10 1.92727e-10 2.24881e-10 2.58561e-10 2.92919e-10 3.26955e-10 3.59555e-10 3.89547e-10 4.15777e-10 4.37172e-10 4.52821e-10 4.62035e-10 4.64402e-10 4.59814e-10 4.48475e-10 4.3089e-10 4.07825e-10 3.80248e-10 3.49268e-10 3.16054e-10 2.81768e-10 2.47495e-10 2.14193e-10 1.82655e-10 1.53486e-10 1.27099e-10 1.03723e-10 8.34256e-11 6.61368e-11 5.16815e-11 3.98114e-11 3.02336e-11 2.26369e-11 1.67116e-11 1.21655e-11 8.73337e-12 6.18316e-12 4.31765e-12 2.97391e-12 2.02062e-12 1.35441e-12 8.95699e-13 5.84454e-13 3.76313e-13 2.39107e-13 1.49938e-13 9.2799e-14 5.66914e-14 3.41875e-14 2.03528e-14 1.19625e-14 6.94213e-15 3.97803e-15 2.25102e-15 1.25794e-15 6.94318e-16 3.78573e-16 2.04012e-16 1.08857e-16 5.79004e-17 3.14839e-17 1.9025e-17 1.53818e-17 
3.78565e-17 4.66423e-17 7.66064e-17 1.39843e-16 2.61127e-16 4.86214e-16 8.96522e-16 1.63398e-15 2.94206e-15 5.23232e-15 9.19035e-15 1.59415e-14 2.73058e-14 4.61825e-14 7.71194e-14 1.2714e-13 2.0692e-13 3.32422e-13 5.27123e-13 8.24967e-13 1.27418e-12 1.94205e-12 2.92074e-12 4.33404e-12 6.34494e-12 9.16352e-12 1.30546e-11 1.83441e-11 2.54229e-11 3.47471e-11 4.68317e-11 6.22381e-11 8.15518e-11 1.05351e-10 1.34165e-10 1.68423e-10 2.08399e-10 2.54149e-10 3.0546e-10 3.61794e-10 4.22264e-10 4.8562e-10 5.50269e-10 6.14325e-10 6.75687e-10 7.32148e-10 7.81527e-10 8.21802e-10 8.51253e-10 8.68581e-10 8.73007e-10 8.64328e-10 8.42934e-10 8.09778e-10 7.66307e-10 7.14353e-10 6.56005e-10 5.93472e-10 5.28943e-10 4.64464e-10 4.01837e-10 3.42551e-10 2.87742e-10 2.38183e-10 1.943e-10 1.56214e-10 1.2379e-10 9.66925e-11 7.44526e-11 5.65167e-11 4.22977e-11 3.12129e-11 2.27123e-11 1.62979e-11 1.1534e-11 8.05089e-12 5.54311e-12 3.76482e-12 2.52261e-12 1.66765e-12 1.08778e-12 7.00162e-13 4.44738e-13 2.78801e-13 1.72505e-13 1.05356e-13 6.35183e-14 3.78055e-14 2.22156e-14 1.28896e-14 7.38473e-15 4.17804e-15 2.33448e-15 1.28833e-15 7.02374e-16 3.78469e-16 2.01926e-16 1.07396e-16 5.83945e-17 3.52851e-17 2.85276e-17 
6.9802e-17 8.60006e-17 1.41247e-16 2.57842e-16 4.81472e-16 8.96522e-16 1.65316e-15 3.01321e-15 5.42587e-15 9.65062e-15 1.69528e-14 2.94101e-14 5.03833e-14 8.52275e-14 1.42346e-13 2.34719e-13 3.82085e-13 6.13969e-13 9.73812e-13 1.52445e-12 2.35519e-12 3.59071e-12 5.40185e-12 8.01825e-12 1.17424e-11 1.69643e-11 2.41761e-11 3.39838e-11 4.71149e-11 6.44183e-11 8.68542e-11 1.1547e-10 1.51358e-10 1.956e-10 2.49188e-10 3.12927e-10 3.87334e-10 4.72524e-10 5.68103e-10 6.73077e-10 7.85795e-10 9.03928e-10 1.02451e-09 1.144e-09 1.2585e-09 1.36386e-09 1.45601e-09 1.53117e-09 1.58611e-09 1.61841e-09 1.62662e-09 1.61034e-09 1.57033e-09 1.50836e-09 1.42714e-09 1.33011e-09 1.22118e-09 1.10448e-09 9.84095e-10 8.63852e-10 7.47113e-10 6.36651e-10 5.34578e-10 4.42325e-10 3.6068e-10 2.89856e-10 2.2959e-10 1.79254e-10 1.37962e-10 1.04679e-10 7.8307e-11 5.77591e-11 4.201e-11 3.01322e-11 2.13153e-11 1.4872e-11 1.02352e-11 6.94882e-12 4.65421e-12 3.07564e-12 2.00546e-12 1.29038e-12 8.19366e-13 5.13486e-13 3.17617e-13 1.93926e-13 1.16885e-13 6.95512e-14 4.08606e-14 2.37024e-14 1.35769e-14 7.67994e-15 4.29044e-15 2.36742e-15 1.2905e-15 6.95296e-16 3.70926e-16 1.97264e-16 1.07251e-16 6.48028e-17 5.23912e-17 
1.27208e-16 1.56728e-16 2.57408e-16 4.69898e-16 8.77474e-16 1.63398e-15 3.01321e-15 5.49259e-15 9.89146e-15 1.75953e-14 3.0913e-14 5.36365e-14 9.19014e-14 1.55487e-13 2.59744e-13 4.28395e-13 6.97522e-13 1.12112e-12 1.77868e-12 2.78521e-12 4.30428e-12 6.56434e-12 9.87861e-12 1.46683e-11 2.14886e-11 3.10561e-11 4.42752e-11 6.22605e-11 8.6351e-11 1.18111e-10 1.5931e-10 2.11882e-10 2.77847e-10 3.59205e-10 4.57793e-10 5.75112e-10 7.12127e-10 8.69066e-10 1.04521e-09 1.23875e-09 1.44665e-09 1.6646e-09 1.88713e-09 2.10772e-09 2.31911e-09 2.51368e-09 2.68386e-09 2.82265e-09 2.92409e-09 2.98369e-09 2.99873e-09 2.96854e-09 2.89447e-09 2.77985e-09 2.62969e-09 2.45037e-09 2.24912e-09 2.0336e-09 1.81137e-09 1.5895e-09 1.37418e-09 1.17055e-09 9.82463e-10 8.12565e-10 6.62282e-10 5.31989e-10 4.21181e-10 3.28681e-10 2.52846e-10 1.91754e-10 1.43376e-10 1.05703e-10 7.68439e-11 5.50913e-11 3.8953e-11 2.71656e-11 1.86877e-11 1.26818e-11 8.4905e-12 5.6085e-12 3.65558e-12 2.35123e-12 1.49245e-12 9.34979e-13 5.78143e-13 3.52886e-13 2.12633e-13 1.2649e-13 7.42928e-14 4.30855e-14 2.46742e-14 1.39545e-14 7.79432e-15 4.30011e-15 2.34367e-15 1.26256e-15 6.73472e-16 3.58125e-16 1.94693e-16 1.17629e-16 9.50962e-17 
2.29007e-16 2.82151e-16 4.6341e-16 8.4598e-16 1.57983e-15 2.94206e-15 5.42587e-15 9.89146e-15 1.78153e-14 3.16948e-14 5.56926e-14 9.66473e-14 1.65627e-13 2.80281e-13 4.68318e-13 7.7258e-13 1.25825e-12 2.02294e-12 3.21036e-12 5.0286e-12 7.77374e-12 1.18595e-11 1.78536e-11 2.65198e-11 3.88656e-11 5.61921e-11 8.01426e-11 1.12744e-10 1.56435e-10 2.14063e-10 2.88857e-10 3.84345e-10 5.0422e-10 6.52144e-10 8.31486e-10 1.04501e-09 1.2945e-09 1.5804e-09 1.90144e-09 2.25433e-09 2.63354e-09 3.03124e-09 3.43743e-09 3.84019e-09 4.22625e-09 4.58164e-09 4.89252e-09 5.14605e-09 5.33131e-09 5.44006e-09 5.46735e-09 5.41193e-09 5.27631e-09 5.06659e-09 4.79198e-09 4.46416e-09 4.09641e-09 3.70274e-09 3.29698e-09 2.89206e-09 2.4993e-09 2.12803e-09 1.7853e-09 1.47588e-09 1.20233e-09 9.65315e-10 7.63863e-10 5.95798e-10 4.58093e-10 3.47229e-10 2.59491e-10 1.91209e-10 1.38934e-10 9.95549e-11 7.03566e-11 4.90425e-11 3.3721e-11 2.28731e-11 1.53068e-11 1.01067e-11 6.58471e-12 4.23352e-12 2.6862e-12 1.68221e-12 1.03983e-12 6.34481e-13 3.8219e-13 2.27289e-13 1.33459e-13 7.73788e-14 4.43027e-14 2.50499e-14 1.39889e-14 7.71622e-15 4.20485e-15 2.26486e-15 1.20796e-15 6.42269e-16 3.49129e-16 2.10917e-16 1.70508e-16 
4.07183e-16 5.01682e-16 8.23997e-16 1.50432e-15 2.80944e-15 5.23232e-15 9.65062e-15 1.75953e-14 3.16948e-14 5.63958e-14 9.91129e-14 1.7203e-13 2.94873e-13 4.99107e-13 8.34156e-13 1.37646e-12 2.24238e-12 3.60623e-12 5.72481e-12 8.97015e-12 1.38719e-11 2.11706e-11 3.18829e-11 4.73778e-11 6.94622e-11 1.00471e-10 1.43357e-10 2.01765e-10 2.8008e-10 3.83433e-10 5.17648e-10 6.89091e-10 9.04438e-10 1.17032e-09 1.49285e-09 1.87706e-09 2.32622e-09 2.8412e-09 3.41976e-09 4.05601e-09 4.74001e-09 5.45766e-09 6.19088e-09 6.91815e-09 7.61545e-09 8.25747e-09 8.81913e-09 9.27719e-09 9.61183e-09 9.80811e-09 9.85708e-09 9.75647e-09 9.51086e-09 9.13133e-09 8.63462e-09 8.04191e-09 7.37727e-09 6.66609e-09 5.93343e-09 5.20263e-09 4.49414e-09 3.82478e-09 3.20724e-09 2.65004e-09 2.15776e-09 1.73147e-09 1.36938e-09 1.0675e-09 8.2032e-10 6.21446e-10 4.6416e-10 3.41832e-10 2.48243e-10 1.77785e-10 1.25576e-10 8.74881e-11 6.01253e-11 4.07631e-11 2.72657e-11 1.79946e-11 1.17186e-11 7.53105e-12 4.77655e-12 2.99011e-12 1.8476e-12 1.12696e-12 6.78616e-13 4.03447e-13 2.36826e-13 1.37272e-13 7.85739e-14 4.44172e-14 2.47989e-14 1.36763e-14 7.45135e-15 4.01286e-15 2.13994e-15 1.13765e-15 6.1834e-16 3.73514e-16 3.01939e-16 
7.14979e-16 8.80928e-16 1.44697e-15 2.64181e-15 4.93419e-15 9.19035e-15 1.69528e-14 3.0913e-14 5.56926e-14 9.91129e-14 1.74219e-13 3.02454e-13 5.18548e-13 8.77918e-13 1.46765e-12 2.42249e-12 3.94766e-12 6.35073e-12 1.00851e-11 1.58079e-11 2.44554e-11 3.73374e-11 5.62534e-11 8.36281e-11 1.22664e-10 1.77505e-10 2.53393e-10 3.56803e-10 4.95538e-10 6.78738e-10 9.1678e-10 1.22103e-09 1.60343e-09 2.07585e-09 2.64926e-09 3.33271e-09 4.13218e-09 5.04931e-09 6.08022e-09 7.2145e-09 8.4345e-09 9.71508e-09 1.1024e-08 1.23227e-08 1.35682e-08 1.47153e-08 1.57189e-08 1.65374e-08 1.71353e-08 1.74857e-08 1.75726e-08 1.73919e-08 1.6952e-08 1.62727e-08 1.53841e-08 1.43242e-08 1.31362e-08 1.18656e-08 1.05573e-08 9.25301e-09 7.98925e-09 6.79598e-09 5.69576e-09 4.70369e-09 3.82777e-09 3.0698e-09 2.42643e-09 1.89041e-09 1.45181e-09 1.09919e-09 8.20498e-10 6.03902e-10 4.38304e-10 3.13721e-10 2.21468e-10 1.54209e-10 1.05921e-10 7.17739e-11 4.79838e-11 3.16523e-11 2.06031e-11 1.32347e-11 8.39042e-12 5.25019e-12 3.24282e-12 1.97725e-12 1.1902e-12 7.07355e-13 4.1509e-13 2.40529e-13 1.3764e-13 7.77866e-14 4.34195e-14 2.39401e-14 1.30409e-14 7.0218e-15 3.74391e-15 1.99008e-15 1.0815e-15 6.53214e-16 5.28011e-16 
1.23972e-15 1.52751e-15 2.50917e-15 4.58151e-15 8.55785e-15 1.59415e-14 2.94101e-14 5.36365e-14 9.66473e-14 1.7203e-13 3.02454e-13 5.25195e-13 9.00654e-13 1.52524e-12 2.55054e-12 4.21119e-12 6.86476e-12 1.10474e-11 1.755e-11 2.75195e-11 4.25909e-11 6.50537e-11 9.80548e-11 1.45839e-10 2.14016e-10 3.09851e-10 4.42543e-10 6.2347e-10 8.66351e-10 1.18728e-09 1.60454e-09 2.13821e-09 2.80939e-09 3.6391e-09 4.64683e-09 5.84873e-09 7.25553e-09 8.87035e-09 1.06866e-08 1.2686e-08 1.48377e-08 1.70973e-08 1.94079e-08 2.17014e-08 2.39017e-08 2.59286e-08 2.77023e-08 2.91488e-08 3.02052e-08 3.08239e-08 3.09764e-08 3.06556e-08 2.98761e-08 2.86736e-08 2.71013e-08 2.52268e-08 2.31268e-08 2.08819e-08 1.85716e-08 1.62696e-08 1.40405e-08 1.19371e-08 9.999e-09 8.25261e-09 6.7118e-09 5.37943e-09 4.24935e-09 3.30853e-09 2.5393e-09 1.92131e-09 1.43327e-09 1.05424e-09 7.64679e-10 5.46992e-10 3.85909e-10 2.68552e-10 1.84354e-10 1.24851e-10 8.34228e-11 5.50007e-11 3.5783e-11 2.29746e-11 1.45585e-11 9.10572e-12 5.62184e-12 3.42643e-12 2.06176e-12 1.22489e-12 7.18549e-13 4.1624e-13 2.38118e-13 1.34535e-13 7.50765e-14 4.13851e-14 2.25389e-14 1.21336e-14 6.46828e-15 3.43765e-15 1.8679e-15 1.12804e-15 9.11765e-16 
2.12252e-15 2.61533e-15 4.29643e-15 7.84566e-15 1.46566e-14 2.73058e-14 5.03833e-14 9.19014e-14 1.65627e-13 2.94873e-13 5.18548e-13 9.00654e-13 1.54494e-12 2.61709e-12 4.3777e-12 7.23041e-12 1.17906e-11 1.89817e-11 3.01663e-11 4.73224e-11 7.32711e-11 1.11966e-10 1.68846e-10 2.51251e-10 3.68897e-10 5.34369e-10 7.63624e-10 1.07642e-09 1.4966e-09 2.05218e-09 2.77504e-09 3.7002e-09 4.86455e-09 6.30494e-09 8.0556e-09 1.0145e-08 1.25923e-08 1.54033e-08 1.85669e-08 2.20518e-08 2.58042e-08 2.9747e-08 3.37805e-08 3.77861e-08 4.16302e-08 4.51724e-08 4.82726e-08 5.08012e-08 5.26474e-08 5.37278e-08 5.39925e-08 5.3429e-08 5.20632e-08 4.99575e-08 4.72061e-08 4.39273e-08 4.02559e-08 3.63333e-08 3.22986e-08 2.82809e-08 2.43931e-08 2.07269e-08 1.73513e-08 1.43119e-08 1.16323e-08 9.31699e-09 7.35479e-09 5.72253e-09 4.38905e-09 3.31863e-09 2.47396e-09 1.8185e-09 1.31814e-09 9.4228e-10 6.64362e-10 4.62037e-10 3.16982e-10 2.14544e-10 1.43271e-10 9.44062e-11 6.13871e-11 3.93935e-11 2.49505e-11 1.55982e-11 9.62594e-12 5.86438e-12 3.5273e-12 2.09478e-12 1.2284e-12 7.11347e-13 4.06812e-13 2.29778e-13 1.28192e-13 7.06465e-14 3.84662e-14 2.07035e-14 1.10347e-14 5.8635e-15 3.18549e-15 1.92345e-15 1.55456e-15 
3.58791e-15 4.42117e-15 7.26375e-15 1.32658e-14 2.47852e-14 4.61825e-14 8.52275e-14 1.55487e-13 2.80281e-13 4.99107e-13 8.77918e-13 1.52524e-12 2.61709e-12 4.43465e-12 7.42048e-12 1.22604e-11 2.00005e-11 3.22117e-11 5.12136e-11 8.03753e-11 1.24507e-10 1.90352e-10 2.87199e-10 4.27594e-10 6.28154e-10 9.10434e-10 1.30179e-09 1.83612e-09 2.55442e-09 3.50487e-09 4.74239e-09 6.32746e-09 8.32384e-09 1.07954e-08 1.38016e-08 1.73922e-08 2.16009e-08 2.64386e-08 3.1887e-08 3.78926e-08 4.43633e-08 5.11662e-08 5.81296e-08 6.50478e-08 7.169e-08 7.78123e-08 8.3172e-08 8.75437e-08 9.07352e-08 9.26015e-08 9.30558e-08 9.20767e-08 8.97095e-08 8.60628e-08 8.13003e-08 7.5628e-08 6.92799e-08 6.25011e-08 5.55331e-08 4.8599e-08 4.18937e-08 3.55754e-08 2.97623e-08 2.45324e-08 1.99254e-08 1.59482e-08 1.25804e-08 9.7813e-09 7.49656e-09 5.66413e-09 4.21941e-09 3.09928e-09 2.24493e-09 1.60367e-09 1.12991e-09 7.85283e-10 5.38396e-10 3.64174e-10 2.43046e-10 1.60057e-10 1.04017e-10 6.67138e-11 4.22322e-11 2.6389e-11 1.62774e-11 9.91219e-12 5.95943e-12 3.53773e-12 2.07378e-12 1.20046e-12 6.86304e-13 3.87522e-13 2.16133e-13 1.19079e-13 6.48213e-14 3.48806e-14 1.8587e-14 9.87468e-15 5.36369e-15 3.23813e-15 2.6169e-15 
5.98778e-15 7.37877e-15 1.21243e-14 2.21455e-14 4.13818e-14 7.71194e-14 1.42346e-13 2.59744e-13 4.68318e-13 8.34156e-13 1.46765e-12 2.55054e-12 4.3777e-12 7.42048e-12 1.24211e-11 2.05303e-11 3.3505e-11 5.39842e-11 8.58687e-11 1.34828e-10 2.08961e-10 3.19637e-10 4.82523e-10 7.18808e-10 1.05658e-09 1.53231e-09 2.19235e-09 3.09421e-09 4.3075e-09 5.91417e-09 8.00781e-09 1.06916e-08 1.40746e-08 1.82661e-08 2.33687e-08 2.94682e-08 3.66233e-08 4.48542e-08 5.41311e-08 6.43645e-08 7.53978e-08 8.7005e-08 9.88931e-08 1.1071e-07 1.22061e-07 1.32527e-07 1.41692e-07 1.49168e-07 1.54625e-07 1.57814e-07 1.58585e-07 1.56902e-07 1.52844e-07 1.46597e-07 1.38443e-07 1.28738e-07 1.17881e-07 1.06296e-07 9.43949e-08 8.25604e-08 7.11248e-08 6.03579e-08 5.04603e-08 4.15632e-08 3.37329e-08 2.69792e-08 2.12655e-08 1.65212e-08 1.26522e-08 9.55212e-09 7.11021e-09 5.21866e-09 3.77721e-09 2.69627e-09 1.89835e-09 1.31841e-09 9.0329e-10 6.10584e-10 4.07233e-10 2.68015e-10 1.74072e-10 1.11581e-10 7.0596e-11 4.4089e-11 2.71817e-11 1.65445e-11 9.94246e-12 5.89969e-12 3.45695e-12 2.00039e-12 1.14322e-12 6.45306e-13 3.59798e-13 1.98175e-13 1.07849e-13 5.80201e-14 3.09106e-14 1.64184e-14 8.91629e-15 5.38191e-15 4.34902e-15 
9.86486e-15 1.21573e-14 1.99786e-14 3.64971e-14 6.82105e-14 1.2714e-13 2.34719e-13 4.28395e-13 7.7258e-13 1.37646e-12 2.42249e-12 4.21119e-12 7.23041e-12 1.22604e-11 2.05303e-11 3.39475e-11 5.54254e-11 8.93437e-11 1.42181e-10 2.2336e-10 3.46355e-10 5.30096e-10 8.00696e-10 1.1935e-09 1.75544e-09 2.54749e-09 3.64724e-09 5.15111e-09 7.17597e-09 9.85961e-09 1.33597e-08 1.78502e-08 2.35156e-08 3.05414e-08 3.91018e-08 4.93436e-08 6.13686e-08 7.52134e-08 9.08305e-08 1.08071e-07 1.26674e-07 1.46258e-07 1.66329e-07 1.86292e-07 2.05477e-07 2.23174e-07 2.38674e-07 2.51321e-07 2.60551e-07 2.6594e-07 2.67236e-07 2.64375e-07 2.57492e-07 2.46907e-07 2.33099e-07 2.16672e-07 1.9831e-07 1.78727e-07 1.58624e-07 1.3865e-07 1.19365e-07 1.01223e-07 8.45608e-08 6.95971e-08 5.64403e-08 4.51035e-08 3.55221e-08 2.75741e-08 2.10992e-08 1.59161e-08 1.18375e-08 8.68125e-09 6.27836e-09 4.47812e-09 3.15046e-09 2.18637e-09 1.49686e-09 1.0111e-09 6.739e-10 4.43226e-10 2.87688e-10 1.84298e-10 1.16535e-10 7.2739e-11 4.48214e-11 2.72675e-11 1.63787e-11 9.71448e-12 5.68983e-12 3.29116e-12 1.88019e-12 1.06093e-12 5.91342e-13 3.25611e-13 1.77152e-13 9.52786e-14 5.07483e-14 2.69493e-14 1.46322e-14 8.83032e-15 7.13493e-15 