<?xml version="1.0"?>
<VTKFile type="StructuredGrid" version="0.1">
    <StructuredGrid WholeExtent="0 100 0 100 0 0">
        <Piece Extent="0 100 0 100 0 0">
            <Points>
                <DataArray type="Float64" NumberOfComponents="3" format="ascii">
-15 -15 0
-15 -14.7 0
-15 -14.4 0
-15 -14.1 0
-15 -13.8 0
-15 -13.5 0
-15 -13.2 0
-15 -12.9 0
-15 -12.6 0
-15 -12.3 0
-15 -12 0
-15 -11.7 0
-15 -11.4 0
-15 -11.1 0
-15 -10.8 0
-15 -10.5 0
-15 -10.2 0
-15 -9.9 0
-15 -9.6 0
-15 -9.3 0
-15 -9 0
-15 -8.7 0
-15 -8.4 0
-15 -8.1 0
-15 -7.8 0
-15 -7.5 0
-15 -7.2 0
-15 -6.9 0
-15 -6.6 0
-15 -6.3 0
-15 -6 0
-15 -5.7 0
-15 -5.4 0
-15 -5.1 0
-15 -4.8 0
-15 -4.5 0
-15 -4.2 0
-15 -3.9 0
-15 -3.6 0
-15 -3.3 0
-15 -3 0
-15 -2.7 0
-15 -2.4 0
-15 -2.1 0
-15 -1.8 0
-15 -1.5 0
-15 -1.2 0
-15 -0.9 0
-15 -0.6 0
-15 -0.3 0
-15 0 0
-15 0.3 0
-15 0.6 0
-15 0.9 0
-15 1.2 0
-15 1.5 0
-15 1.8 0
-15 2.1 0
-15 2.4 0
-15 2.7 0
-15 3 0
-15 3.3 0
-15 3.6 0
-15 3.9 0
-15 4.2 0
-15 4.5 0
-15 4.8 0
-15 5.1 0
-15 5.4 0
-15 5.7 0
-15 6 0
-15 6.3 0
-15 6.6 0
-15 6.9 0
-15 7.2 0
-15 7.5 0
-15 7.8 0
-15 8.1 0
-15 8.4 0
-15 8.7 0
-15 9 0
-15 9.3 0
-15 9.6 0
-15 9.9 0
-15 10.2 0
-15 10.5 0
-15 10.8 0
-15 11.1 0
-15 11.4 0
-15 11.7 0
-15 12 0
-15 12.3 0
-15 12.6 0
-15 12.9 0
-15 13.2 0
-15 13.5 0
-15 13.8 0
-15 14.1 0
-15 14.4 0
-15 14.7 0
-15 15 0
-14.7 -15 0
-14.7 -14.7 0
-14.7 -14.4 0
-14.7 -14.1 0
-14.7 -13.8 0
-14.7 -13.5 0
-14.7 -13.2 0
-14.7 -12.9 0
-14.7 -12.6 0
-14.7 -12.3 0
-14.7 -12 0
-14.7 -11.7 0
-14.7 -11.4 0
-14.7 -11.1 0
-14.7 -10.8 0
-14.7 -10.5 0
-14.7 -10.2 0
-14.7 -9.9 0
-14.7 -9.6 0
-14.7 -9.3 0
-14.7 -9 0
-14.7 -8.7 0
-14.7 -8.4 0
-14.7 -8.1 0
-14.7 -7.8 0
-14.7 -7.5 0
-14.7 -7.2 0
-14.7 -6.9 0
-14.7 -6.6 0
-14.7 -6.3 0
-14.7 -6 0
-14.7 -5.7 0
-14.7 -5.4 0
-14.7 -5.1 0
-14.7 -4.8 0
-14.7 -4.5 0
-14.7 -4.2 0
-14.7 -3.9 0
-14.7 -3.6 0
-14.7 -3.3 0
-14.7 -3 0
-14.7 -2.7 0
-14.7 -2.4 0
-14.7 -2.1 0
-14.7 -1.8 0
-14.7 -1.5 0
-14.7 -1.2 0
-14.7 -0.9 0
-14.7 -0.6 0
-14.7 -0.3 0
-14.7 0 0
-14.7 0.3 0
-14.7 0.6 0
-14.7 0.9 0
-14.7 1.2 0
-14.7 1.5 0
-14.7 1.8 0
-14.7 2.1 0
-14.7 2.4 0
-14.7 2.7 0
-14.7 3 0
-14.7 3.3 0
-14.7 3.6 0
-14.7 3.9 0
-14.7 4.2 0
-14.7 4.5 0
-14.7 4.8 0
-14.7 5.1 0
-14.7 5.4 0
-14.7 5.7 0
-14.7 6 0
-14.7 6.3 0
-14.7 6.6 0
-14.7 6.9 0
-14.7 7.2 0
-14.7 7.5 0
-14.7 7.8 0
-14.7 8.1 0
-14.7 8.4 0
-14.7 8.7 0
-14.7 9 0
-14.7 9.3 0
-14.7 9.6 0
-14.7 9.9 0
-14.7 10.2 0
-14.7 10.5 0
-14.7 10.8 0
-14.7 11.1 0
-14.7 11.4 0
-14.7 11.7 0
-14.7 12 0
-14.7 12.3 0
-14.7 12.6 0
-14.7 12.9 0
-14.7 13.2 0
-14.7 13.5 0
-14.7 13.8 0
-14.7 14.1 0
-14.7 14.4 0
-14.7 14.7 0
-14.7 15 0
-14.4 -15 0
-14.4 -14.7 0
-14.4 -14.4 0
-14.4 -14.1 0
-14.4 -13.8 0
-14.4 -13.5 0
-14.4 -13.2 0
-14.4 -12.9 0
-14.4 -12.6 0
-14.4 -12.3 0
-14.4 -12 0
-14.4 -11.7 0
-14.4 -11.4 0
-14.4 -11.1 0
-14.4 -10.8 0
-14.4 -10.5 0
-14.4 -10.2 0
-14.4 -9.9 0
-14.4 -9.6 0
-14.4 -9.3 0
-14.4 -9 0
-14.4 -8.7 0
-14.4 -8.4 0
-14.4 -8.1 0
-14.4 -7.8 0
-14.4 -7.5 0
-14.4 -7.2 0
-14.4 -6.9 0
-14.4 -6.6 0
-14.4 -6.3 0
-14.4 -6 0
-14.4 -5.7 0
-14.4 -5.4 0
-14.4 -5.1 0
-14.4 -4.8 0
-14.4 -4.5 0
-14.4 -4.2 0
-14.4 -3.9 0
-14.4 -3.6 0
-14.4 -3.3 0
-14.4 -3 0
-14.4 -2.7 0
-14.4 -2.4 0
-14.4 -2.1 0
-14.4 -1.8 0
-14.4 -1.5 0
-14.4 -1.2 0
-14.4 -0.9 0
-14.4 -0.6 0
-14.4 -0.3 0
-14.4 0 0
-14.4 0.3 0
-14.4 0.6 0
-14.4 0.9 0
-14.4 1.2 0
-14.4 1.5 0
-14.4 1.8 0
-14.4 2.1 0
-14.4 2.4 0
-14.4 2.7 0
-14.4 3 0
-14.4 3.3 0
-14.4 3.6 0
-14.4 3.9 0
-14.4 4.2 0
-14.4 4.5 0
-14.4 4.8 0
-14.4 5.1 0
-14.4 5.4 0
-14.4 5.7 0
-14.4 6 0
-14.4 6.3 0
-14.4 6.6 0
-14.4 6.9 0
-14.4 7.2 0
-14.4 7.5 0
-14.4 7.8 0
-14.4 8.1 0
-14.4 8.4 0
-14.4 8.7 0
-14.4 9 0
-14.4 9.3 0
-14.4 9.6 0
-14.4 9.9 0
-14.4 10.2 0
-14.4 10.5 0
-14.4 10.8 0
-14.4 11.1 0
-14.4 11.4 0
-14.4 11.7 0
-14.4 12 0
-14.4 12.3 0
-14.4 12.6 0
-14.4 12.9 0
-14.4 13.2 0
-14.4 13.5 0
-14.4 13.8 0
-14.4 14.1 0
-14.4 14.4 0
-14.4 14.7 0
-14.4 15 0
-14.1 -15 0
-14.1 -14.7 0
-14.1 -14.4 0
-14.1 -14.1 0
-14.1 -13.8 0
-14.1 -13.5 0
-14.1 -13.2 0
-14.1 -12.9 0
-14.1 -12.6 0
-14.1 -12.3 0
-14.1 -12 0
-14.1 -11.7 0
-14.1 -11.4 0
-14.1 -11.1 0
-14.1 -10.8 0
-14.1 -10.5 0
-14.1 -10.2 0
-14.1 -9.9 0
-14.1 -9.6 0
-14.1 -9.3 0
-14.1 -9 0
-14.1 -8.7 0
-14.1 -8.4 0
-14.1 -8.1 0
-14.1 -7.8 0
-14.1 -7.5 0
-14.1 -7.2 0
-14.1 -6.9 0
-14.1 -6.6 0
-14.1 -6.3 0
-14.1 -6 0
-14.1 -5.7 0
-14.1 -5.4 0
-14.1 -5.1 0
-14.1 -4.8 0
-14.1 -4.5 0
-14.1 -4.2 0
-14.1 -3.9 0
-14.1 -3.6 0
-14.1 -3.3 0
-14.1 -3 0
-14.1 -2.7 0
-14.1 -2.4 0
-14.1 -2.1 0
-14.1 -1.8 0
-14.1 -1.5 0
-14.1 -1.2 0
-14.1 -0.9 0
-14.1 -0.6 0
-14.1 -0.3 0
-14.1 0 0
-14.1 0.3 0
-14.1 0.6 0
-14.1 0.9 0
-14.1 1.2 0
-14.1 1.5 0
-14.1 1.8 0
-14.1 2.1 0
-14.1 2.4 0
-14.1 2.7 0
-14.1 3 0
-14.1 3.3 0
-14.1 3.6 0
-14.1 3.9 0
-14.1 4.2 0
-14.1 4.5 0
-14.1 4.8 0
-14.1 5.1 0
-14.1 5.4 0
-14.1 5.7 0
-14.1 6 0
-14.1 6.3 0
-14.1 6.6 0
-14.1 6.9 0
-14.1 7.2 0
-14.1 7.5 0
-14.1 7.8 0
-14.1 8.1 0
-14.1 8.4 0
-14.1 8.7 0
-14.1 9 0
-14.1 9.3 0
-14.1 9.6 0
-14.1 9.9 0
-14.1 10.2 0
-14.1 10.5 0
-14.1 10.8 0
-14.1 11.1 0
-14.1 11.4 0
-14.1 11.7 0
-14.1 12 0
-14.1 12.3 0
-14.1 12.6 0
-14.1 12.9 0
-14.1 13.2 0
-14.1 13.5 0
-14.1 13.8 0
-14.1 14.1 0
-14.1 14.4 0
-14.1 14.7 0
-14.1 15 0
-13.8 -15 0
-13.8 -14.7 0
-13.8 -14.4 0
-13.8 -14.1 0
-13.8 -13.8 0
-13.8 -13.5 0
-13.8 -13.2 0
-13.8 -12.9 0
-13.8 -12.6 0
-13.8 -12.3 0
-13.8 -12 0
-13.8 -11.7 0
-13.8 -11.4 0
-13.8 -11.1 0
-13.8 -10.8 0
-13.8 -10.5 0
-13.8 -10.2 0
-13.8 -9.9 0
-13.8 -9.6 0
-13.8 -9.3 0
-13.8 -9 0
-13.8 -8.7 0
-13.8 -8.4 0
-13.8 -8.1 0
-13.8 -7.8 0
-13.8 -7.5 0
-13.8 -7.2 0
-13.8 -6.9 0
-13.8 -6.6 0
-13.8 -6.3 0
-13.8 -6 0
-13.8 -5.7 0
-13.8 -5.4 0
-13.8 -5.1 0
-13.8 -4.8 0
-13.8 -4.5 0
-13.8 -4.2 0
-13.8 -3.9 0
-13.8 -3.6 0
-13.8 -3.3 0
-13.8 -3 0
-13.8 -2.7 0
-13.8 -2.4 0
-13.8 -2.1 0
-13.8 -1.8 0
-13.8 -1.5 0
-13.8 -1.2 0
-13.8 -0.9 0
-13.8 -0.6 0
-13.8 -0.3 0
-13.8 0 0
-13.8 0.3 0
-13.8 0.6 0
-13.8 0.9 0
-13.8 1.2 0
-13.8 1.5 0
-13.8 1.8 0
-13.8 2.1 0
-13.8 2.4 0
-13.8 2.7 0
-13.8 3 0
-13.8 3.3 0
-13.8 3.6 0
-13.8 3.9 0
-13.8 4.2 0
-13.8 4.5 0
-13.8 4.8 0
-13.8 5.1 0
-13.8 5.4 0
-13.8 5.7 0
-13.8 6 0
-13.8 6.3 0
-13.8 6.6 0
-13.8 6.9 0
-13.8 7.2 0
-13.8 7.5 0
-13.8 7.8 0
-13.8 8.1 0
-13.8 8.4 0
-13.8 8.7 0
-13.8 9 0
-13.8 9.3 0
-13.8 9.6 0
-13.8 9.9 0
-13.8 10.2 0
-13.8 10.5 0
-13.8 10.8 0
-13.8 11.1 0
-13.8 11.4 0
-13.8 11.7 0
-13.8 12 0
-13.8 12.3 0
-13.8 12.6 0
-13.8 12.9 0
-13.8 13.2 0
-13.8 13.5 0
-13.8 13.8 0
-13.8 14.1 0
-13.8 14.4 0
-13.8 14.7 0
-13.8 15 0
-13.5 -15 0
-13.5 -14.7 0
-13.5 -14.4 0
-13.5 -14.1 0
-13.5 -13.8 0
-13.5 -13.5 0
-13.5 -13.2 0
-13.5 -12.9 0
-13.5 -12.6 0
-13.5 -12.3 0
-13.5 -12 0
-13.5 -11.7 0
-13.5 -11.4 0
-13.5 -11.1 0
-13.5 -10.8 0
-13.5 -10.5 0
-13.5 -10.2 0
-13.5 -9.9 0
-13.5 -9.6 0
-13.5 -9.3 0
-13.5 -9 0
-13.5 -8.7 0
-13.5 -8.4 0
-13.5 -8.1 0
-13.5 -7.8 0
-13.5 -7.5 0
-13.5 -7.2 0
-13.5 -6.9 0
-13.5 -6.6 0
-13.5 -6.3 0
-13.5 -6 0
-13.5 -5.7 0
-13.5 -5.4 0
-13.5 -5.1 0
-13.5 -4.8 0
-13.5 -4.5 0
-13.5 -4.2 0
-13.5 -3.9 0
-13.5 -3.6 0
-13.5 -3.3 0
-13.5 -3 0
-13.5 -2.7 0
-13.5 -2.4 0
-13.5 -2.1 0
-13.5 -1.8 0
-13.5 -1.5 0
-13.5 -1.2 0
-13.5 -0.9 0
-13.5 -0.6 0
-13.5 -0.3 0
-13.5 0 0
-13.5 0.3 0
-13.5 0.6 0
-13.5 0.9 0
-13.5 1.2 0
-13.5 1.5 0
-13.5 1.8 0
-13.5 2.1 0
-13.5 2.4 0
-13.5 2.7 0
-13.5 3 0
-13.5 3.3 0
-13.5 3.6 0
-13.5 3.9 0
-13.5 4.2 0
-13.5 4.5 0
-13.5 4.8 0
-13.5 5.1 0
-13.5 5.4 0
-13.5 5.7 0
-13.5 6 0
-13.5 6.3 0
-13.5 6.6 0
-13.5 6.9 0
-13.5 7.2 0
-13.5 7.5 0
-13.5 7.8 0
-13.5 8.1 0
-13.5 8.4 0
-13.5 8.7 0
-13.5 9 0
-13.5 9.3 0
-13.5 9.6 0
-13.5 9.9 0
-13.5 10.2 0
-13.5 10.5 0
-13.5 10.8 0
-13.5 11.1 0
-13.5 11.4 0
-13.5 11.7 0
-13.5 12 0
-13.5 12.3 0
-13.5 12.6 0
-13.5 12.9 0
-13.5 13.2 0
-13.5 13.5 0
-13.5 13.8 0
-13.5 14.1 0
-13.5 14.4 0
-13.5 14.7 0
-13.5 15 0
-13.2 -15 0
-13.2 -14.7 0
-13.2 -14.4 0
-13.2 -14.1 0
-13.2 -13.8 0
-13.2 -13.5 0
-13.2 -13.2 0
-13.2 -12.9 0
-13.2 -12.6 0
-13.2 -12.3 0
-13.2 -12 0
-13.2 -11.7 0
-13.2 -11.4 0
-13.2 -11.1 0
-13.2 -10.8 0
-13.2 -10.5 0
-13.2 -10.2 0
-13.2 -9.9 0
-13.2 -9.6 0
-13.2 -9.3 0
-13.2 -9 0
-13.2 -8.7 0
-13.2 -8.4 0
-13.2 -8.1 0
-13.2 -7.8 0
-13.2 -7.5 0
-13.2 -7.2 0
-13.2 -6.9 0
-13.2 -6.6 0
-13.2 -6.3 0
-13.2 -6 0
-13.2 -5.7 0
-13.2 -5.4 0
-13.2 -5.1 0
-13.2 -4.8 0
-13.2 -4.5 0
-13.2 -4.2 0
-13.2 -3.9 0
-13.2 -3.6 0
-13.2 -3.3 0
-13.2 -3 0
-13.2 -2.7 0
-13.2 -2.4 0
-13.2 -2.1 0
-13.2 -1.8 0
-13.2 -1.5 0
-13.2 -1.2 0
-13.2 -0.9 0
-13.2 -0.6 0
-13.2 -0.3 0
-13.2 0 0
-13.2 0.3 0
-13.2 0.6 0
-13.2 0.9 0
-13.2 1.2 0
-13.2 1.5 0
-13.2 1.8 0
-13.2 2.1 0
-13.2 2.4 0
-13.2 2.7 0
-13.2 3 0
-13.2 3.3 0
-13.2 3.6 0
-13.2 3.9 0
-13.2 4.2 0
-13.2 4.5 0
-13.2 4.8 0
-13.2 5.1 0
-13.2 5.4 0
-13.2 5.7 0
-13.2 6 0
-13.2 6.3 0
-13.2 6.6 0
-13.2 6.9 0
-13.2 7.2 0
-13.2 7.5 0
-13.2 7.8 0
-13.2 8.1 0
-13.2 8.4 0
-13.2 8.7 0
-13.2 9 0
-13.2 9.3 0
-13.2 9.6 0
-13.2 9.9 0
-13.2 10.2 0
-13.2 10.5 0
-13.2 10.8 0
-13.2 11.1 0
-13.2 11.4 0
-13.2 11.7 0
-13.2 12 0
-13.2 12.3 0
-13.2 12.6 0
-13.2 12.9 0
-13.2 13.2 0
-13.2 13.5 0
-13.2 13.8 0
-13.2 14.1 0
-13.2 14.4 0
-13.2 14.7 0
-13.2 15 0
-12.9 -15 0
-12.9 -14.7 0
-12.9 -14.4 0
-12.9 -14.1 0
-12.9 -13.8 0
-12.9 -13.5 0
-12.9 -13.2 0
-12.9 -12.9 0
-12.9 -12.6 0
-12.9 -12.3 0
-12.9 -12 0
-12.9 -11.7 0
-12.9 -11.4 0
-12.9 -11.1 0
-12.9 -10.8 0
-12.9 -10.5 0
-12.9 -10.2 0
-12.9 -9.9 0
-12.9 -9.6 0
-12.9 -9.3 0
-12.9 -9 0
-12.9 -8.7 0
-12.9 -8.4 0
-12.9 -8.1 0
-12.9 -7.8 0
-12.9 -7.5 0
-12.9 -7.2 0
-12.9 -6.9 0
-12.9 -6.6 0
-12.9 -6.3 0
-12.9 -6 0
-12.9 -5.7 0
-12.9 -5.4 0
-12.9 -5.1 0
-12.9 -4.8 0
-12.9 -4.5 0
-12.9 -4.2 0
-12.9 -3.9 0
-12.9 -3.6 0
-12.9 -3.3 0
-12.9 -3 0
-12.9 -2.7 0
-12.9 -2.4 0
-12.9 -2.1 0
-12.9 -1.8 0
-12.9 -1.5 0
-12.9 -1.2 0
-12.9 -0.9 0
-12.9 -0.6 0
-12.9 -0.3 0
-12.9 0 0
-12.9 0.3 0
-12.9 0.6 0
-12.9 0.9 0
-12.9 1.2 0
-12.9 1.5 0
-12.9 1.8 0
-12.9 2.1 0
-12.9 2.4 0
-12.9 2.7 0
-12.9 3 0
-12.9 3.3 0
-12.9 3.6 0
-12.9 3.9 0
-12.9 4.2 0
-12.9 4.5 0
-12.9 4.8 0
-12.9 5.1 0
-12.9 5.4 0
-12.9 5.7 0
-12.9 6 0
-12.9 6.3 0
-12.9 6.6 0
-12.9 6.9 0
-12.9 7.2 0
-12.9 7.5 0
-12.9 7.8 0
-12.9 8.1 0
-12.9 8.4 0
-12.9 8.7 0
-12.9 9 0
[...]
            <PointData>
                <DataArray type="Float64" Name="c1" format="ascii">
0.0033606 0.00336414 0.00337478 0.00339251 0.00341733 0.00344926 0.0034883 0.00353445 0.00358772 0.00364812 0.00371563 0.00379027 0.00387201 0.00396084 0.00405672 0.00415963 0.00426949 0.00438624 0.00450977 0.00463997 0.00477668 0.00491972 0.00506887 0.00522386 0.00538439 0.0055501 0.00572057 0.00589535 0.0060739 0.00625562 0.00643987 0.00662592 0.00681298 0.0070002 0.00718667 0.00737142 0.00755343 0.00773163 0.00790493 0.00807222 0.00823238 0.0083843 0.00852692 0.0086592 0.00878017 0.00888895 0.00898473 0.0090668 0.00913456 0.00918751 0.00922527 0.00924759 0.00925433 0.0092455 0.00922121 0.00918169 0.00912732 0.00905854 0.00897595 0.00888022 0.0087721 0.00865244 0.00852216 0.00838221 0.00823364 0.00807749 0.00791486 0.00774684 0.00757454 0.00739905 0.00722142 0.00704268 0.0068638 0.00668571 0.00650926 0.00633525 0.00616442 0.0059974 0.00583481 0.00567716 0.00552492 0.00537851 0.00523827 0.00510451 0.00497751 0.00485748 0.00474461 0.00463907 0.00454098 0.00445046 0.0043676 0.00429247 0.00422512 0.00416562 0.00411399 0.00407026 0.00403446 0.0040066 0.00398669 0.00397474 0.00397076 
0.00336224 0.00336579 0.00337644 0.0033942 0.00341907 0.00345106 0.00349017 0.0035364 0.00358978 0.00365028 0.00371793 0.00379272 0.00387463 0.00396364 0.00405974 0.00416287 0.00427299 0.00439001 0.00451385 0.00464438 0.00478145 0.00492489 0.00507446 0.00522991 0.00539093 0.00555717 0.00572822 0.00590361 0.0060828 0.00626521 0.00645019 0.006637 0.00682486 0.00701292 0.00720025 0.00738589 0.0075688 0.00774791 0.00792213 0.00809032 0.00825136 0.00840412 0.00854753 0.00868054 0.00880218 0.00891155 0.00900784 0.00909033 0.00915841 0.0092116 0.00924951 0.00927188 0.00927859 0.00926963 0.00924512 0.00920531 0.00915055 0.00908132 0.00899821 0.00890189 0.00879312 0.00867276 0.00854173 0.00840101 0.00825162 0.00809464 0.00793116 0.00776229 0.00758914 0.00741281 0.00723435 0.0070548 0.00687514 0.00669629 0.00651913 0.00634444 0.00617295 0.00600533 0.00584217 0.00568398 0.00553125 0.00538437 0.00524371 0.00510957 0.0049822 0.00486184 0.00474867 0.00464286 0.00454453 0.00445379 0.00437073 0.00429542 0.00422792 0.00416829 0.00411654 0.00407272 0.00403684 0.00400892 0.00398896 0.00397699 0.003973 
0.00336714 0.00337071 0.00338142 0.00339928 0.00342428 0.00345644 0.00349576 0.00354225 0.00359592 0.00365678 0.00372482 0.00380006 0.00388247 0.00397204 0.00406876 0.00417259 0.00428346 0.00440132 0.00452607 0.00465759 0.00479575 0.00494036 0.00509121 0.00524804 0.00541055 0.00557839 0.00575115 0.00592836 0.0061095 0.00629398 0.00648114 0.00667026 0.00686053 0.00705109 0.00724102 0.00742933 0.00761498 0.00779685 0.00797382 0.00814474 0.00830842 0.00846373 0.00860953 0.00874475 0.0088684 0.00897954 0.00907735 0.0091611 0.00923018 0.00928409 0.00932243 0.00934497 0.00935156 0.00934221 0.00931705 0.00927633 0.00922042 0.00914982 0.00906512 0.00896702 0.0088563 0.00873384 0.00860057 0.00845749 0.00830566 0.00814617 0.00798014 0.0078087 0.00763299 0.00745411 0.00727316 0.00709118 0.00690916 0.00672806 0.00654873 0.00637199 0.00619856 0.00602911 0.00586423 0.00570444 0.00555022 0.00540196 0.00526003 0.00512471 0.00499626 0.00487492 0.00476085 0.00465422 0.00455515 0.00446375 0.0043801 0.00430426 0.00423631 0.00417627 0.00412418 0.00408007 0.00404396 0.00401586 0.00399578 0.00398374 0.00397972 
0.00337529 0.00337889 0.00338969 0.00340771 0.00343293 0.00346538 0.00350505 0.00355197 0.00360614 0.00366758 0.00373628 0.00381226 0.0038955 0.00398601 0.00408377 0.00418873 0.00430087 0.00442012 0.00454638 0.00467957 0.00481953 0.0049661 0.00511908 0.00527821 0.0054432 0.0056137 0.00578932 0.00596958 0.00615398 0.00634191 0.00653273 0.00672569 0.00691999 0.00711477 0.00730907 0.00750188 0.00769212 0.00787865 0.00806028 0.0082358 0.00840397 0.00856357 0.00871341 0.00885236 0.00897938 0.0090935 0.00919387 0.00927974 0.00935048 0.00940558 0.00944465 0.00946744 0.00947382 0.00946381 0.00943753 0.00939528 0.00933743 0.00926451 0.00917713 0.00907603 0.00896203 0.00883601 0.00869897 0.00855193 0.00839599 0.00823228 0.00806196 0.0078862 0.00770618 0.00752303 0.0073379 0.00715184 0.00696589 0.006781 0.00659805 0.00641787 0.0062412 0.00606869 0.00590095 0.00573849 0.00558179 0.00543123 0.00528717 0.00514989 0.00501965 0.00489667 0.0047811 0.00467311 0.00457282 0.00448031 0.00439567 0.00431897 0.00425024 0.00418954 0.00413688 0.0040923 0.0040558 0.00402741 0.00400712 0.00399494 0.00399088 
0.00338665 0.00339029 0.00340122 0.00341945 0.00344499 0.00347783 0.00351801 0.00356552 0.00362039 0.00368263 0.00375225 0.00382926 0.00391368 0.00400549 0.00410469 0.00421126 0.00432516 0.00444634 0.00457473 0.00471023 0.00485272 0.00500204 0.00515799 0.00532034 0.0054888 0.00566304 0.00584266 0.00602721 0.00621618 0.00640897 0.00660493 0.00680331 0.00700332 0.00720405 0.00740454 0.00760374 0.00780052 0.00799368 0.00818196 0.00836406 0.00853864 0.00870438 0.00885999 0.00900426 0.00913607 0.00925442 0.00935841 0.00944726 0.00952034 0.00957711 0.00961719 0.00964031 0.00964637 0.00963538 0.00960751 0.00956305 0.00950243 0.00942619 0.009335 0.00922963 0.00911094 0.00897988 0.00883747 0.0086848 0.00852302 0.00835331 0.0081769 0.00799502 0.00780888 0.00761971 0.00742866 0.00723685 0.00704533 0.00685511 0.00666707 0.00648206 0.00630082 0.00612402 0.00595226 0.00578606 0.00562588 0.0054721 0.00532506 0.00518504 0.00505229 0.00492701 0.00480936 0.00469947 0.00459746 0.00450341 0.00441739 0.00433947 0.00426967 0.00420803 0.00415458 0.00410934 0.0040723 0.00404349 0.00402291 0.00401056 0.00400644 
0.00340116 0.00340485 0.00341596 0.00343447 0.00346039 0.00349375 0.00353456 0.00358283 0.00363859 0.00370186 0.00377266 0.00385101 0.00393692 0.0040304 0.00413145 0.00424007 0.00435623 0.00447989 0.00461101 0.00474948 0.00489521 0.00504806 0.00520783 0.00537432 0.00554725 0.00572629 0.00591108 0.00610116 0.00629603 0.0064951 0.00669771 0.00690313 0.00711054 0.00731903 0.00752759 0.00773516 0.00794053 0.00814243 0.0083395 0.0085303 0.00871337 0.00888723 0.00905045 0.00920172 0.00933982 0.00946369 0.0095724 0.00966514 0.00974124 0.00980016 0.00984151 0.00986503 0.00987062 0.00985831 0.0098283 0.00978092 0.00971662 0.00963601 0.0095398 0.00942881 0.00930397 0.00916627 0.00901682 0.00885676 0.00868732 0.00850975 0.00832537 0.00813547 0.00794136 0.0077443 0.00754555 0.00734625 0.00714752 0.00695037 0.00675574 0.00656448 0.00637734 0.00619501 0.00601807 0.00584705 0.00568238 0.00552445 0.00537359 0.00523005 0.00509408 0.00496585 0.00484551 0.00473318 0.00462897 0.00453295 0.00444517 0.00436568 0.00429451 0.00423168 0.00417721 0.00413111 0.00409339 0.00406405 0.00404309 0.00403052 0.00402633 
0.00341875 0.00342252 0.00343382 0.00345267 0.00347908 0.00351306 0.00355464 0.00360383 0.00366068 0.0037252 0.00379743 0.0038774 0.00396512 0.00406063 0.00416394 0.00427505 0.00439397 0.00452066 0.00465508 0.00479718 0.00494687 0.00510401 0.00526846 0.00544 0.00561839 0.00580332 0.00599443 0.00619129 0.00639341 0.0066002 0.00681102 0.00702512 0.00724169 0.0074598 0.00767843 0.00789644 0.00811259 0.0083255 0.00853368 0.00873552 0.00892936 0.00911351 0.00928637 0.00944643 0.00959241 0.00972317 0.00983773 0.00993528 0.0100151 0.0100767 0.0101195 0.0101435 0.0101484 0.0101344 0.0101017 0.0100506 0.00998162 0.00989549 0.00979295 0.0096749 0.00954232 0.00939631 0.00923802 0.00906869 0.00888965 0.00870224 0.00850788 0.00830796 0.00810389 0.00789704 0.0076887 0.00748013 0.00727246 0.00706676 0.006864 0.00666504 0.00647066 0.00628153 0.00609824 0.0059213 0.00575115 0.00558815 0.00543261 0.00528478 0.00514487 0.00501304 0.00488943 0.00477414 0.00466725 0.00456881 0.00447888 0.00439749 0.00432465 0.00426037 0.00420466 0.00415753 0.00411898 0.00408899 0.00406757 0.00405473 0.00405044 
0.00343935 0.0034432 0.00345474 0.00347399 0.00350096 0.00353567 0.00357815 0.00362843 0.00368655 0.00375254 0.00382645 0.00390832 0.00399818 0.00409607 0.00420203 0.00431608 0.00443823 0.00456847 0.0047068 0.00485317 0.00500751 0.00516973 0.00533968 0.0055172 0.00570204 0.00589393 0.00609254 0.00629744 0.00650816 0.00672414 0.00694474 0.00716923 0.00739678 0.00762646 0.00785723 0.00808792 0.00831721 0.0085436 0.00876546 0.00898095 0.00918813 0.00938502 0.00956972 0.00974055 0.00989608 0.0100352 0.0101568 0.0102601 0.0103444 0.0104091 0.0104537 0.0104781 0.0104822 0.010466 0.0104298 0.0103741 0.0102995 0.0102065 0.0100963 0.00996956 0.00982755 0.00967139 0.00950233 0.00932171 0.00913096 0.00893157 0.00872506 0.00851298 0.00829686 0.00807816 0.00785828 0.00763854 0.00742016 0.00720423 0.00699176 0.00678363 0.00658062 0.00638342 0.00619259 0.00600865 0.00583201 0.00566302 0.00550196 0.00534905 0.0052045 0.00506843 0.00494096 0.00482217 0.00471213 0.00461086 0.00451841 0.00443477 0.00435996 0.00429398 0.00423682 0.00418848 0.00414894 0.00411819 0.00409624 0.00408307 0.00407868 
0.00346285 0.00346679 0.00347861 0.00349831 0.00352592 0.00356147 0.00360499 0.00365651 0.00371609 0.00378376 0.00385959 0.00394364 0.00403594 0.00413657 0.00424556 0.00436297 0.00448883 0.00462316 0.00476597 0.00491724 0.00507694 0.00524498 0.00542128 0.00560567 0.00579796 0.00599789 0.00620515 0.00641936 0.00664006 0.00686672 0.00709871 0.00733532 0.00757573 0.00781902 0.00806414 0.00830988 0.00855486 0.00879749 0.00903592 0.00926805 0.00949154 0.00970396 0.00990301 0.0100867 0.0102536 0.0104024 0.0105324 0.0106425 0.0107321 0.0108004 0.0108471 0.0108719 0.0108748 0.0108559 0.0108155 0.0107542 0.0106726 0.0105715 0.0104519 0.0103149 0.0101616 0.00999326 0.00981131 0.00961718 0.00941242 0.00919869 0.00897769 0.00875112 0.00852067 0.00828793 0.00805442 0.00782155 0.00759059 0.00736269 0.00713888 0.00692007 0.00670704 0.00650047 0.00630092 0.00610888 0.00592474 0.00574883 0.0055814 0.00542265 0.00527275 0.00513181 0.00499991 0.00487711 0.00476344 0.00465892 0.00456357 0.00447736 0.0044003 0.00433237 0.00427354 0.0042238 0.00418314 0.00415153 0.00412896 0.00411542 0.00411091 
0.00348915 0.00349319 0.00350531 0.00352553 0.00355386 0.00359035 0.00363503 0.00368794 0.00374915 0.00381872 0.00389671 0.0039832 0.00407825 0.00418194 0.00429435 0.00441554 0.00454557 0.0046845 0.00483235 0.00498915 0.00515488 0.00532951 0.00551297 0.00570513 0.00590585 0.00611489 0.00633198 0.00655677 0.00678884 0.00702767 0.00727269 0.0075232 0.00777841 0.00803743 0.0082992 0.00856253 0.008826 0.00908792 0.00934624 0.00959849 0.00984182 0.0100731 0.0102893 0.0104882 0.0106682 0.0108283 0.0109679 0.0110861 0.0111818 0.0112543 0.0113033 0.0113284 0.0113297 0.0113075 0.0112621 0.011194 0.0111041 0.0109933 0.0108626 0.0107133 0.0105467 0.010364 0.0101669 0.00995679 0.00973546 0.00950477 0.00926665 0.00902302 0.00877576 0.00852663 0.00827727 0.00802917 0.00778369 0.00754201 0.00730519 0.00707416 0.00684968 0.00663243 0.00642295 0.00622171 0.00602907 0.00584531 0.00567068 0.00550533 0.00534939 0.00520295 0.00506605 0.00493872 0.00482097 0.0047128 0.00461418 0.00452508 0.00444549 0.00437535 0.00431465 0.00426335 0.00422142 0.00418883 0.00416557 0.00415162 0.00414698 
0.00351812 0.00352227 0.00353473 0.00355551 0.00358464 0.00362217 0.00366813 0.00372258 0.0037856 0.00385725 0.00393763 0.00402682 0.00412491 0.004232 0.00434819 0.00447356 0.00460822 0.00475224 0.00490569 0.00506861 0.00524105 0.00542299 0.00561442 0.00581524 0.00602535 0.00624456 0.00647264 0.00670928 0.0069541 0.00720663 0.00746633 0.00773255 0.00800455 0.00828147 0.00856232 0.00884594 0.00913092 0.00941553 0.00969755 0.00997413 0.0102416 0.0104958 0.0107326 0.010949 0.0111437 0.0113166 0.0114672 0.0115947 0.0116978 0.0117753 0.0118267 0.011852 0.0118514 0.011825 0.0117734 0.0116973 0.0115974 0.0114751 0.0113314 0.0111678 0.0109856 0.0107863 0.0105714 0.0103426 0.0101018 0.00985116 0.00959296 0.00932941 0.0090626 0.00879451 0.00852691 0.00826137 0.00799932 0.00774199 0.00749045 0.0072456 0.00700823 0.00677898 0.00655837 0.00634682 0.00614467 0.00595217 0.0057695 0.0055968 0.00543414 0.00528158 0.00513912 0.00500677 0.00488449 0.00477226 0.00467002 0.00457772 0.00449532 0.00442275 0.00435997 0.00430694 0.00426361 0.00422995 0.00420592 0.00419151 0.00418671 
0.00354962 0.00355389 0.00356672 0.00358811 0.00361812 0.00365677 0.00370413 0.00376026 0.00382525 0.00389919 0.00398217 0.00407431 0.00417572 0.00428652 0.00440684 0.00453679 0.0046765 0.00482609 0.00498567 0.00515531 0.0053351 0.00552507 0.00572525 0.0059356 0.00615605 0.00638648 0.0066267 0.00687644 0.00713539 0.00740313 0.00767917 0.00796293 0.00825373 0.00855079 0.00885322 0.00915994 0.00946966 0.00978072 0.0100908 0.0103968 0.0106941 0.0109766 0.0112378 0.0114739 0.0116843 0.0118709 0.0120343 0.0121732 0.0122852 0.0123686 0.0124228 0.0124481 0.0124449 0.0124135 0.0123544 0.0122685 0.0121568 0.0120209 0.011862 0.0116818 0.0114817 0.0112631 0.0110277 0.010777 0.0105134 0.0102395 0.00995777 0.00967102 0.00938164 0.00909178 0.00880336 0.00851805 0.0082373 0.00796237 0.00769432 0.00743406 0.00718233 0.00693975 0.0067068 0.00648385 0.0062712 0.00606904 0.00587752 0.00569672 0.00552668 0.0053674 0.00521884 0.00508098 0.00495374 0.00483705 0.00473085 0.00463505 0.00454957 0.00447434 0.0044093 0.00435437 0.00430951 0.00427467 0.0042498 0.0042349 0.00422993 
0.00358349 0.00358789 0.00360112 0.00362318 0.00365412 0.00369399 0.00374286 0.00380081 0.00386793 0.00394433 0.00403012 0.00412545 0.00423044 0.00434525 0.00447003 0.00460493 0.00475012 0.00490574 0.00507195 0.00524887 0.00543664 0.00563533 0.00584502 0.00606573 0.00629746 0.00654012 0.0067936 0.00705769 0.00733213 0.00761658 0.00791062 0.00821374 0.00852537 0.00884483 0.00917136 0.00950406 0.00984186 0.0101833 0.0105265 0.0108682 0.0112029 0.0115215 0.0118118 0.0120691 0.0122941 0.0124947 0.0126732 0.0128268 0.0129503 0.0130409 0.013098 0.0131231 0.0131167 0.013079 0.0130106 0.0129128 0.0127871 0.012635 0.0124585 0.0122592 0.0120387 0.0117983 0.0115393 0.0112633 0.010973 0.0106715 0.0103623 0.0100486 0.00973322 0.00941853 0.00910654 0.00879897 0.0084973 0.00820276 0.0079164 0.00763909 0.00737153 0.00711429 0.00686778 0.00663235 0.00640821 0.00619552 0.00599435 0.00580473 0.00562665 0.00546005 0.00530488 0.00516103 0.00502841 0.0049069 0.0047964 0.0046968 0.004608 0.00452989 0.00446239 0.00440542 0.0043589 0.00432278 0.00429701 0.00428157 0.00427642 
0.00361957 0.00362411 0.00363776 0.00366054 0.00369248 0.00373366 0.00378414 0.00384403 0.00391342 0.00399245 0.00408126 0.00417999 0.00428882 0.00440792 0.00453748 0.00467769 0.00482874 0.00499083 0.00516415 0.00534889 0.00554522 0.00575329 0.00597323 0.00620511 0.006449 0.00670489 0.00697271 0.00725236 0.00754364 0.00784627 0.00815994 0.00848424 0.00881869 0.00916278 0.00951592 0.00987744 0.0102466 0.0106225 0.0110038 0.0113885 0.0117715 0.0121397 0.0124647 0.0127431 0.0129756 0.0131888 0.0133868 0.0135616 0.013701 0.0138006 0.0138603 0.0138847 0.0138745 0.0138291 0.0137489 0.0136363 0.0134934 0.0133224 0.0131253 0.0129043 0.012661 0.0123964 0.0121107 0.0118054 0.0114834 0.0111493 0.0108077 0.0104628 0.0101176 0.00977469 0.00943619 0.00910378 0.00877888 0.00846268 0.00815617 0.00786017 0.0075753 0.00730206 0.00704082 0.00679182 0.00655523 0.00633113 0.00611953 0.00592039 0.00573364 0.00555918 0.00539687 0.00524659 0.00510818 0.00498149 0.00486638 0.00476271 0.00467033 0.00458914 0.004519 0.00445983 0.00441154 0.00437406 0.00434732 0.0043313 0.00432596 
0.00365768 0.00366237 0.00367647 0.0037 0.00373301 0.00377557 0.00382776 0.0038897 0.00396151 0.00404333 0.00413533 0.00423768 0.00435058 0.00447423 0.00460887 0.0047547 0.00491198 0.00508095 0.00526185 0.00545491 0.00566037 0.00587844 0.00610931 0.00635313 0.00661003 0.00688009 0.00716333 0.0074597 0.0077691 0.00809136 0.00842626 0.00877349 0.00913274 0.00950365 0.00988583 0.0102789 0.0106823 0.011096 0.0115199 0.0119547 0.0124008 0.0128479 0.0132114 0.0135102 0.0137246 0.0139478 0.0141754 0.014386 0.0145482 0.0146594 0.0147186 0.0147424 0.0147286 0.0146738 0.0145774 0.0144456 0.0142818 0.0140882 0.0138672 0.0136215 0.0133534 0.0130631 0.012748 0.0124086 0.0120484 0.011675 0.0112951 0.0109138 0.0105345 0.0101599 0.00979183 0.0094319 0.00908142 0.00874148 0.00841298 0.00809664 0.00779299 0.00750245 0.0072253 0.00696169 0.00671171 0.00647536 0.00625257 0.00604324 0.00584722 0.00566434 0.00549442 0.00533727 0.00519269 0.00506048 0.00494046 0.00483245 0.00473628 0.0046518 0.00457887 0.00451736 0.00446719 0.00442825 0.00440049 0.00438385 0.0043783 
0.00369762 0.00370248 0.00371705 0.00374137 0.0037755 0.00381951 0.0038735 0.0039376 0.00401195 0.00409671 0.00419207 0.00429823 0.00441541 0.00454387 0.00468384 0.00483561 0.00499947 0.00517569 0.00536458 0.00556643 0.00578154 0.00601019 0.00625263 0.00650912 0.00677984 0.00706497 0.00736462 0.00767883 0.00800761 0.00835088 0.00870854 0.00908044 0.0094664 0.00986624 0.0102798 0.0107069 0.0111473 0.011601 0.0120689 0.0125557 0.0130771 0.0135229 0.0138993 0.0142251 0.0145122 0.0147522 0.0150336 0.0153156 0.0155076 0.0156352 0.0156803 0.0157072 0.0156927 0.0156275 0.0155057 0.0153479 0.0151582 0.0149376 0.0146884 0.0144146 0.0141206 0.0138062 0.0134594 0.0130808 0.0126726 0.0122503 0.0118247 0.0114013 0.0109836 0.0105735 0.0101727 0.00978255 0.00940413 0.00903838 0.00868605 0.00834774 0.00802387 0.00771475 0.00742054 0.00714131 0.00687703 0.00662762 0.00639293 0.00617276 0.00596689 0.00577509 0.0055971 0.00543268 0.00528157 0.00514352 0.00501831 0.00490571 0.00480553 0.00471758 0.00464169 0.00457773 0.00452556 0.00448509 0.00445624 0.00443895 0.00443319 
0.00373921 0.00374423 0.00375929 0.00378444 0.00381974 0.00386527 0.00392114 0.0039875 0.0040645 0.00415234 0.0042512 0.00436134 0.00448301 0.00461647 0.00476204 0.00492002 0.00509075 0.00527457 0.00547183 0.0056829 0.00590814 0.00614789 0.00640251 0.00667232 0.00695762 0.00725866 0.00757566 0.00790877 0.00825812 0.00862374 0.00900565 0.00940386 0.00981837 0.0102492 0.0106965 0.0111602 0.01164 0.0121354 0.0126451 0.0131702 0.0136876 0.0140712 0.0144682 0.0148587 0.0152572 0.0155624 0.0159418 0.0162216 0.0164428 0.0166183 0.0167374 0.0167939 0.0167877 0.0167158 0.0165451 0.0163505 0.016129 0.0158758 0.0155924 0.0152852 0.0149645 0.0146375 0.0142572 0.0138351 0.01336 0.0128755 0.0123953 0.011924 0.0114633 0.0110142 0.0105777 0.0101547 0.00974601 0.0093524 0.00897445 0.00861258 0.00826709 0.00793815 0.00762578 0.00732995 0.00705052 0.00678728 0.00653999 0.00630838 0.00609213 0.00589092 0.00570444 0.00553237 0.00537439 0.00523021 0.00509954 0.00498213 0.00487774 0.00478615 0.00470716 0.00464062 0.00458637 0.00454429 0.0045143 0.00449634 0.00449035 
0.00378222 0.00378741 0.00380298 0.00382899 0.0038655 0.00391261 0.00397044 0.00403914 0.0041189 0.00420991 0.00431243 0.0044267 0.00455302 0.00469169 0.00484307 0.0050075 0.00518538 0.0053771 0.00558308 0.00580374 0.00603953 0.00629087 0.0065582 0.00684195 0.0071425 0.00746022 0.00779545 0.00814846 0.00851949 0.00890873 0.00931632 0.00974242 0.0101872 0.0106511 0.0111343 0.0116374 0.0121602 0.0127009 0.0132541 0.0138103 0.0142546 0.0146716 0.0151053 0.0155425 0.0159662 0.0163994 0.0168149 0.0170865 0.0173416 0.0175595 0.0177576 0.0178652 0.0178888 0.0178398 0.0177009 0.0174611 0.0172023 0.0169093 0.0165821 0.0162296 0.0158744 0.0154764 0.0150566 0.0146129 0.0141108 0.0135458 0.013003 0.012479 0.0119717 0.0114804 0.0110054 0.010547 0.0101058 0.00968241 0.00927709 0.00889013 0.00852168 0.00817172 0.00784016 0.00752681 0.0072314 0.00695362 0.00669311 0.00644949 0.00622235 0.0060113 0.00581593 0.00563586 0.00547071 0.00532012 0.00518377 0.00506134 0.00495256 0.00485718 0.00477496 0.00470573 0.0046493 0.00460556 0.00457438 0.00455571 0.00454949 