<?xml version="1.0"?>
<VTKFile type="StructuredGrid" version="0.1">
    <StructuredGrid WholeExtent="0 100 0 100 0 0">
        <Piece Extent="0 100 0 100 0 0">
            <Points>
                <DataArray type="Float64" NumberOfComponents="3" format="ascii">
-15 -15 0
-15 -14.7 0
-15 -14.4 0
-15 -14.1 0
-15 -13.8 0
-15 -13.5 0
-15 -13.2 0
-15 -12.9 0
-15 -12.6 0
-15 -12.3 0
-15 -12 0
-15 -11.7 0
-15 -11.4 0
-15 -11.1 0
-15 -10.8 0
-15 -10.5 0
-15 -10.2 0
-15 -9.9 0
-15 -9.6 0
-15 -9.3 0
-15 -9 0
-15 -8.7 0
-15 -8.4 0
-15 -8.1 0
-15 -7.8 0
-15 -7.5 0
-15 -7.2 0
-15 -6.9 0
-15 -6.6 0
-15 -6.3 0
-15 -6 0
-15 -5.7 0
-15 -5.4 0
-15 -5.1 0
-15 -4.8 0
-15 -4.5 0
-15 -4.2 0
-15 -3.9 0
-15 -3.6 0
-15 -3.3 0
-15 -3 0
-15 -2.7 0
-15 -2.4 0
-15 -2.1 0
-15 -1.8 0
-15 -1.5 0
-15 -1.2 0
-15 -0.9 0
-15 -0.6 0
-15 -0.3 0
-15 0 0
-15 0.3 0
-15 0.6 0
-15 0.9 0
-15 1.2 0
-15 1.5 0
-15 1.8 0
-15 2.1 0
-15 2.4 0
-15 2.7 0
-15 3 0
-15 3.3 0
-15 3.6 0
-15 3.9 0
-15 4.2 0
-15 4.5 0
-15 4.8 0
-15 5.1 0
-15 5.4 0
-15 5.7 0
-15 6 0
-15 6.3 0
-15 6.6 0
-15 6.9 0
-15 7.2 0
-15 7.5 0
-15 7.8 0
-15 8.1 0
-15 8.4 0
-15 8.7 0
-15 9 0
-15 9.3 0
-15 9.6 0
-15 9.9 0
-15 10.2 0
-15 10.5 0
-15 10.8 0
-15 11.1 0
-15 11.4 0
-15 11.7 0
-15 12 0
-15 12.3 0
-15 12.6 0
-15 12.9 0
-15 13.2 0
-15 13.5 0
-15 13.8 0
-15 14.1 0
-15 14.4 0
-15 14.7 0
-15 15 0
-14.7 -15 0
-14.7 -14.7 0
-14.7 -14.4 0
-14.7 -14.1 0
-14.7 -13.8 0
-14.7 -13.5 0
-14.7 -13.2 0
-14.7 -12.9 0
-14.7 -12.6 0
-14.7 -12.3 0
-14.7 -12 0
-14.7 -11.7 0
-14.7 -11.4 0
-14.7 -11.1 0
-14.7 -10.8 0
-14.7 -10.5 0
-14.7 -10.2 0
-14.7 -9.9 0
-14.7 -9.6 0
-14.7 -9.3 0
-14.7 -9 0
-14.7 -8.7 0
-14.7 -8.4 0
-14.7 -8.1 0
-14.7 -7.8 0
-14.7 -7.5 0
-14.7 -7.2 0
-14.7 -6.9 0
-14.7 -6.6 0
-14.7 -6.3 0
-14.7 -6 0
-14.7 -5.7 0
-14.7 -5.4 0
-14.7 -5.1 0
-14.7 -4.8 0
-14.7 -4.5 0
-14.7 -4.2 0
-14.7 -3.9 0
-14.7 -3.6 0
-14.7 -3.3 0
-14.7 -3 0
-14.7 -2.7 0
-14.7 -2.4 0
-14.7 -2.1 0
-14.7 -1.8 0
-14.7 -1.5 0
-14.7 -1.2 0
-14.7 -0.9 0
-14.7 -0.6 0
-14.7 -0.3 0
-14.7 0 0
-14.7 0.3 0
-14.7 0.6 0
-14.7 0.9 0
-14.7 1.2 0
-14.7 1.5 0
-14.7 1.8 0
-14.7 2.1 0
-14.7 2.4 0
-14.7 2.7 0
-14.7 3 0
-14.7 3.3 0
-14.7 3.6 0
-14.7 3.9 0
-14.7 4.2 0
-14.7 4.5 0
-14.7 4.8 0
-14.7 5.1 0
-14.7 5.4 0
-14.7 5.7 0
-14.7 6 0
-14.7 6.3 0
-14.7 6.6 0
-14.7 6.9 0
-14.7 7.2 0
-14.7 7.5 0
-14.7 7.8 0
-14.7 8.1 0
-14.7 8.4 0
-14.7 8.7 0
-14.7 9 0
-14.7 9.3 0
-14.7 9.6 0
-14.7 9.9 0
-14.7 10.2 0
-14.7 10.5 0
-14.7 10.8 0
-14.7 11.1 0
-14.7 11.4 0
-14.7 11.7 0
-14.7 12 0
-14.7 12.3 0
-14.7 12.6 0
-14.7 12.9 0
-14.7 13.2 0
-14.7 13.5 0
-14.7 13.8 0
-14.7 14.1 0
-14.7 14.4 0
-14.7 14.7 0
-14.7 15 0
-14.4 -15 0
-14.4 -14.7 0
-14.4 -14.4 0
-14.4 -14.1 0
-14.4 -13.8 0
-14.4 -13.5 0
-14.4 -13.2 0
-14.4 -12.9 0
-14.4 -12.6 0
-14.4 -12.3 0
-14.4 -12 0
-14.4 -11.7 0
-14.4 -11.4 0
-14.4 -11.1 0
-14.4 -10.8 0
-14.4 -10.5 0
-14.4 -10.2 0
-14.4 -9.9 0
-14.4 -9.6 0
-14.4 -9.3 0
-14.4 -9 0
-14.4 -8.7 0
-14.4 -8.4 0
-14.4 -8.1 0
-14.4 -7.8 0
-14.4 -7.5 0
-14.4 -7.2 0
-14.4 -6.9 0
-14.4 -6.6 0
-14.4 -6.3 0
-14.4 -6 0
-14.4 -5.7 0
-14.4 -5.4 0
-14.4 -5.1 0
-14.4 -4.8 0
-14.4 -4.5 0
-14.4 -4.2 0
-14.4 -3.9 0
-14.4 -3.6 0
-14.4 -3.3 0
-14.4 -3 0
-14.4 -2.7 0
-14.4 -2.4 0
-14.4 -2.1 0
-14.4 -1.8 0
-14.4 -1.5 0
-14.4 -1.2 0
-14.4 -0.9 0
-14.4 -0.6 0
-14.4 -0.3 0
-14.4 0 0
-14.4 0.3 0
-14.4 0.6 0
-14.4 0.9 0
-14.4 1.2 0
-14.4 1.5 0
-14.4 1.8 0
-14.4 2.1 0
-14.4 2.4 0
-14.4 2.7 0
-14.4 3 0
-14.4 3.3 0
-14.4 3.6 0
-14.4 3.9 0
-14.4 4.2 0
-14.4 4.5 0
-14.4 4.8 0
-14.4 5.1 0
-14.4 5.4 0
-14.4 5.7 0
-14.4 6 0
-14.4 6.3 0
-14.4 6.6 0
-14.4 6.9 0
-14.4 7.2 0
-14.4 7.5 0
-14.4 7.8 0
-14.4 8.1 0
-14.4 8.4 0
-14.4 8.7 0
-14.4 9 0
-14.4 9.3 0
-14.4 9.6 0
-14.4 9.9 0
-14.4 10.2 0
-14.4 10.5 0
-14.4 10.8 0
-14.4 11.1 0
-14.4 11.4 0
-14.4 11.7 0
-14.4 12 0
-14.4 12.3 0
-14.4 12.6 0
-14.4 12.9 0
-14.4 13.2 0
-14.4 13.5 0
-14.4 13.8 0
-14.4 14.1 0
-14.4 14.4 0
-14.4 14.7 0
-14.4 15 0
-14.1 -15 0
-14.1 -14.7 0
-14.1 -14.4 0
-14.1 -14.1 0
-14.1 -13.8 0
-14.1 -13.5 0
-14.1 -13.2 0
-14.1 -12.9 0
-14.1 -12.6 0
-14.1 -12.3 0
-14.1 -12 0
-14.1 -11.7 0
-14.1 -11.4 0
-14.1 -11.1 0
-14.1 -10.8 0
-14.1 -10.5 0
-14.1 -10.2 0
-14.1 -9.9 0
-14.1 -9.6 0
-14.1 -9.3 0
-14.1 -9 0
-14.1 -8.7 0
-14.1 -8.4 0
-14.1 -8.1 0
-14.1 -7.8 0
-14.1 -7.5 0
-14.1 -7.2 0
-14.1 -6.9 0
-14.1 -6.6 0
-14.1 -6.3 0
-14.1 -6 0
-14.1 -5.7 0
-14.1 -5.4 0
-14.1 -5.1 0
-14.1 -4.8 0
-14.1 -4.5 0
-14.1 -4.2 0
-14.1 -3.9 0
-14.1 -3.6 0
-14.1 -3.3 0
-14.1 -3 0
-14.1 -2.7 0
-14.1 -2.4 0
-14.1 -2.1 0
-14.1 -1.8 0
-14.1 -1.5 0
-14.1 -1.2 0
-14.1 -0.9 0
-14.1 -0.6 0
-14.1 -0.3 0
-14.1 0 0
-14.1 0.3 0
-14.1 0.6 0
-14.1 0.9 0
-14.1 1.2 0
-14.1 1.5 0
-14.1 1.8 0
-14.1 2.1 0
-14.1 2.4 0
-14.1 2.7 0
-14.1 3 0
-14.1 3.3 0
-14.1 3.6 0
-14.1 3.9 0
-14.1 4.2 0
-14.1 4.5 0
-14.1 4.8 0
-14.1 5.1 0
-14.1 5.4 0
-14.1 5.7 0
-14.1 6 0
-14.1 6.3 0
-14.1 6.6 0
-14.1 6.9 0
-14.1 7.2 0
-14.1 7.5 0
-14.1 7.8 0
-14.1 8.1 0
-14.1 8.4 0
-14.1 8.7 0
-14.1 9 0
-14.1 9.3 0
-14.1 9.6 0
-14.1 9.9 0
-14.1 10.2 0
-14.1 10.5 0
-14.1 10.8 0
-14.1 11.1 0
-14.1 11.4 0
-14.1 11.7 0
-14.1 12 0
-14.1 12.3 0
-14.1 12.6 0
-14.1 12.9 0
-14.1 13.2 0
-14.1 13.5 0
-14.1 13.8 0
-14.1 14.1 0
-14.1 14.4 0
-14.1 14.7 0
-14.1 15 0
-13.8 -15 0
-13.8 -14.7 0
-13.8 -14.4 0
-13.8 -14.1 0
-13.8 -13.8 0
-13.8 -13.5 0
-13.8 -13.2 0
-13.8 -12.9 0
-13.8 -12.6 0
-13.8 -12.3 0
-13.8 -12 0
-13.8 -11.7 0
-13.8 -11.4 0
-13.8 -11.1 0
-13.8 -10.8 0
-13.8 -10.5 0
-13.8 -10.2 0
-13.8 -9.9 0
-13.8 -9.6 0
-13.8 -9.3 0
-13.8 -9 0
-13.8 -8.7 0
-13.8 -8.4 0
-13.8 -8.1 0
-13.8 -7.8 0
-13.8 -7.5 0
-13.8 -7.2 0
-13.8 -6.9 0
-13.8 -6.6 0
-13.8 -6.3 0
-13.8 -6 0
-13.8 -5.7 0
-13.8 -5.4 0
-13.8 -5.1 0
-13.8 -4.8 0
-13.8 -4.5 0
-13.8 -4.2 0
-13.8 -3.9 0
-13.8 -3.6 0
-13.8 -3.3 0
-13.8 -3 0
-13.8 -2.7 0
-13.8 -2.4 0
-13.8 -2.1 0
-13.8 -1.8 0
-13.8 -1.5 0
-13.8 -1.2 0
-13.8 -0.9 0
-13.8 -0.6 0
-13.8 -0.3 0
-13.8 0 0
-13.8 0.3 0
-13.8 0.6 0
-13.8 0.9 0
-13.8 1.2 0
-13.8 1.5 0
-13.8 1.8 0
-13.8 2.1 0
-13.8 2.4 0
-13.8 2.7 0
-13.8 3 0
-13.8 3.3 0
-13.8 3.6 0
-13.8 3.9 0
-13.8 4.2 0
-13.8 4.5 0
-13.8 4.8 0
-13.8 5.1 0
-13.8 5.4 0
-13.8 5.7 0
-13.8 6 0
-13.8 6.3 0
-13.8 6.6 0
-13.8 6.9 0
-13.8 7.2 0
-13.8 7.5 0
-13.8 7.8 0
-13.8 8.1 0
-13.8 8.4 0
-13.8 8.7 0
-13.8 9 0
-13.8 9.3 0
-13.8 9.6 0
-13.8 9.9 0
-13.8 10.2 0
-13.8 10.5 0
-13.8 10.8 0
-13.8 11.1 0
-13.8 11.4 0
-13.8 11.7 0
-13.8 12 0
-13.8 12.3 0
-13.8 12.6 0
-13.8 12.9 0
-13.8 13.2 0
-13.8 13.5 0
-13.8 13.8 0
-13.8 14.1 0
-13.8 14.4 0
-13.8 14.7 0
-13.8 15 0
-13.5 -15 0
-13.5 -14.7 0
-13.5 -14.4 0
-13.5 -14.1 0
-13.5 -13.8 0
-13.5 -13.5 0
-13.5 -13.2 0
-13.5 -12.9 0
-13.5 -12.6 0
-13.5 -12.3 0
-13.5 -12 0
-13.5 -11.7 0
-13.5 -11.4 0
-13.5 -11.1 0
-13.5 -10.8 0
-13.5 -10.5 0
-13.5 -10.2 0
-13.5 -9.9 0
-13.5 -9.6 0
-13.5 -9.3 0
-13.5 -9 0
-13.5 -8.7 0
-13.5 -8.4 0
-13.5 -8.1 0
-13.5 -7.8 0
-13.5 -7.5 0
-13.5 -7.2 0
-13.5 -6.9 0
-13.5 -6.6 0
-13.5 -6.3 0
-13.5 -6 0
-13.5 -5.7 0
-13.5 -5.4 0
-13.5 -5.1 0
-13.5 -4.8 0
-13.5 -4.5 0
-13.5 -4.2 0
-13.5 -3.9 0
-13.5 -3.6 0
-13.5 -3.3 0
-13.5 -3 0
-13.5 -2.7 0
-13.5 -2.4 0
-13.5 -2.1 0
-13.5 -1.8 0
-13.5 -1.5 0
-13.5 -1.2 0
-13.5 -0.9 0
-13.5 -0.6 0
-13.5 -0.3 0
-13.5 0 0
-13.5 0.3 0
-13.5 0.6 0
-13.5 0.9 0
-13.5 1.2 0
-13.5 1.5 0
-13.5 1.8 0
-13.5 2.1 0
-13.5 2.4 0
-13.5 2.7 0
-13.5 3 0
-13.5 3.3 0
-13.5 3.6 0
-13.5 3.9 0
-13.5 4.2 0
-13.5 4.5 0
-13.5 4.8 0
-13.5 5.1 0
-13.5 5.4 0
-13.5 5.7 0
-13.5 6 0
-13.5 6.3 0
-13.5 6.6 0
-13.5 6.9 0
-13.5 7.2 0
-13.5 7.5 0
-13.5 7.8 0
-13.5 8.1 0
-13.5 8.4 0
-13.5 8.7 0
-13.5 9 0
-13.5 9.3 0
-13.5 9.6 0
-13.5 9.9 0
-13.5 10.2 0
-13.5 10.5 0
-13.5 10.8 0
-13.5 11.1 0
-13.5 11.4 0
-13.5 11.7 0
-13.5 12 0
-13.5 12.3 0
-13.5 12.6 0
-13.5 12.9 0
-13.5 13.2 0
-13.5 13.5 0
-13.5 13.8 0
-13.5 14.1 0
-13.5 14.4 0
-13.5 14.7 0
-13.5 15 0
-13.2 -15 0
-13.2 -14.7 0
-13.2 -14.4 0
-13.2 -14.1 0
-13.2 -13.8 0
-13.2 -13.5 0
-13.2 -13.2 0
-13.2 -12.9 0
-13.2 -12.6 0
-13.2 -12.3 0
-13.2 -12 0
-13.2 -11.7 0
-13.2 -11.4 0
-13.2 -11.1 0
-13.2 -10.8 0
-13.2 -10.5 0
-13.2 -10.2 0
-13.2 -9.9 0
-13.2 -9.6 0
-13.2 -9.3 0
-13.2 -9 0
-13.2 -8.7 0
-13.2 -8.4 0
-13.2 -8.1 0
-13.2 -7.8 0
-13.2 -7.5 0
-13.2 -7.2 0
-13.2 -6.9 0
-13.2 -6.6 0
-13.2 -6.3 0
-13.2 -6 0
-13.2 -5.7 0
-13.2 -5.4 0
-13.2 -5.1 0
-13.2 -4.8 0
-13.2 -4.5 0
-13.2 -4.2 0
-13.2 -3.9 0
-13.2 -3.6 0
-13.2 -3.3 0
-13.2 -3 0
-13.2 -2.7 0
-13.2 -2.4 0
-13.2 -2.1 0
-13.2 -1.8 0
-13.2 -1.5 0
-13.2 -1.2 0
-13.2 -0.9 0
-13.2 -0.6 0
-13.2 -0.3 0
-13.2 0 0
-13.2 0.3 0
-13.2 0.6 0
-13.2 0.9 0
-13.2 1.2 0
-13.2 1.5 0
-13.2 1.8 0
-13.2 2.1 0
-13.2 2.4 0
-13.2 2.7 0
-13.2 3 0
-13.2 3.3 0
-13.2 3.6 0
-13.2 3.9 0
-13.2 4.2 0
-13.2 4.5 0
-13.2 4.8 0
-13.2 5.1 0
-13.2 5.4 0
-13.2 5.7 0
-13.2 6 0
-13.2 6.3 0
-13.2 6.6 0
-13.2 6.9 0
-13.2 7.2 0
-13.2 7.5 0
-13.2 7.8 0
-13.2 8.1 0
-13.2 8.4 0
-13.2 8.7 0
-13.2 9 0
-13.2 9.3 0
-13.2 9.6 0
-13.2 9.9 0
-13.2 10.2 0
-13.2 10.5 0
-13.2 10.8 0
-13.2 11.1 0
-13.2 11.4 0
-13.2 11.7 0
-13.2 12 0
-13.2 12.3 0
-13.2 12.6 0
-13.2 12.9 0
-13.2 13.2 0
-13.2 13.5 0
-13.2 13.8 0
-13.2 14.1 0
-13.2 14.4 0
-13.2 14.7 0
-13.2 15 0
-12.9 -15 0
-12.9 -14.7 0
-12.9 -14.4 0
-12.9 -14.1 0
-12.9 -13.8 0
-12.9 -13.5 0
-12.9 -13.2 0
-12.9 -12.9 0
-12.9 -12.6 0
-12.9 -12.3 0
-12.9 -12 0
-12.9 -11.7 0
-12.9 -11.4 0
-12.9 -11.1 0
-12.9 -10.8 0
-12.9 -10.5 0
-12.9 -10.2 0
-12.9 -9.9 0
-12.9 -9.6 0
-12.9 -9.3 0
-12.9 -9 0
-12.9 -8.7 0
-12.9 -8.4 0
-12.9 -8.1 0
-12.9 -7.8 0
-12.9 -7.5 0
-12.9 -7.2 0
-12.9 -6.9 0
-12.9 -6.6 0
-12.9 -6.3 0
-12.9 -6 0
-12.9 -5.7 0
-12.9 -5.4 0
-12.9 -5.1 0
-12.9 -4.8 0
-12.9 -4.5 0
-12.9 -4.2 0
-12.9 -3.9 0
-12.9 -3.6 0
-12.9 -3.3 0
-12.9 -3 0
-12.9 -2.7 0
-12.9 -2.4 0
-12.9 -2.1 0
-12.9 -1.8 0
-12.9 -1.5 0
-12.9 -1.2 0
-12.9 -0.9 0
-12.9 -0.6 0
-12.9 -0.3 0
-12.9 0 0
-12.9 0.3 0
-12.9 0.6 0
-12.9 0.9 0
-12.9 1.2 0
-12.9 1.5 0
-12.9 1.8 0
-12.9 2.1 0
-12.9 2.4 0
-12.9 2.7 0
-12.9 3 0
-12.9 3.3 0
-12.9 3.6 0
-12.9 3.9 0
-12.9 4.2 0
-12.9 4.5 0
-12.9 4.8 0
-12.9 5.1 0
-12.9 5.4 0
-12.9 5.7 0
-12.9 6 0
-12.9 6.3 0
-12.9 6.6 0
-12.9 6.9 0
-12.9 7.2 0
-12.9 7.5 0
-12.9 7.8 0
-12.9 8.1 0
-12.9 8.4 0
-12.9 8.7 0
-12.9 9 0
[...]
            <PointData>
                <DataArray type="Float64" Name="c1" format="ascii">
0.00145899 0.0014606 0.00146541 0.00147343 0.00148466 0.00149908 0.00151668 0.00153746 0.00156139 0.00158845 0.00161863 0.0016519 0.00168821 0.00172752 0.0017698 0.00181498 0.00186299 0.00191376 0.00196721 0.00202324 0.00208173 0.00214256 0.0022056 0.00227069 0.00233766 0.00240633 0.00247649 0.00254792 0.00262039 0.00269365 0.00276741 0.00284139 0.0029153 0.00298881 0.00306159 0.00313331 0.00320361 0.00327214 0.00333854 0.00340244 0.00346351 0.00352137 0.0035757 0.00362616 0.00367245 0.00371427 0.00375136 0.00378347 0.00381041 0.003832 0.00384809 0.00385859 0.00386344 0.00386261 0.00385612 0.00384402 0.00382642 0.00380345 0.00377528 0.00374212 0.0037042 0.00366179 0.00361519 0.00356469 0.00351065 0.00345339 0.00339329 0.00333071 0.00326601 0.00319958 0.00313177 0.00306295 0.00299347 0.00292369 0.00285394 0.00278454 0.00271579 0.00264798 0.00258139 0.00251628 0.00245288 0.00239142 0.00233209 0.0022751 0.00222059 0.00216875 0.00211969 0.00207355 0.00203045 0.00199047 0.00195371 0.00192024 0.00189013 0.00186344 0.00184022 0.00182051 0.00180433 0.00179173 0.00178271 0.00177729 0.00177549 
0.0014602 0.00146181 0.00146664 0.00147468 0.00148594 0.00150039 0.00151805 0.00153888 0.00156287 0.00159002 0.00162028 0.00165364 0.00169005 0.00172949 0.00177189 0.0018172 0.00186536 0.0019163 0.00196992 0.00202613 0.00208482 0.00214587 0.00220913 0.00227445 0.00234167 0.0024106 0.00248103 0.00255275 0.00262551 0.00269907 0.00277314 0.00284745 0.00292168 0.00299552 0.00306864 0.0031407 0.00321133 0.0032802 0.00334692 0.00341115 0.00347253 0.00353069 0.0035853 0.00363603 0.00368256 0.00372461 0.00376189 0.00379418 0.00382127 0.00384297 0.00385915 0.0038697 0.00387457 0.00387373 0.00386719 0.00385502 0.00383731 0.00381421 0.00378587 0.00375252 0.00371438 0.00367173 0.00362487 0.0035741 0.00351976 0.0034622 0.00340178 0.00333888 0.00327385 0.00320708 0.00313894 0.00306979 0.00299998 0.00292988 0.00285981 0.00279009 0.00272104 0.00265294 0.00258607 0.00252069 0.00245703 0.00239532 0.00233577 0.00227855 0.00222384 0.0021718 0.00212257 0.00207627 0.00203301 0.00199289 0.001956 0.00192242 0.00189221 0.00186544 0.00184214 0.00182236 0.00180613 0.00179349 0.00178444 0.00177901 0.00177719 
0.00146383 0.00146546 0.00147032 0.00147843 0.00148977 0.00150434 0.00152214 0.00154314 0.00156733 0.0015947 0.00162522 0.00165886 0.00169559 0.00173537 0.00177815 0.00182388 0.00187249 0.00192391 0.00197805 0.00203482 0.0020941 0.00215578 0.00221971 0.00228574 0.00235371 0.00242342 0.00249467 0.00256724 0.00264088 0.00271535 0.00279037 0.00286564 0.00294086 0.0030157 0.00308983 0.00316289 0.00323454 0.00330441 0.00337213 0.00343732 0.00349963 0.0035587 0.00361416 0.00366569 0.00371297 0.00375568 0.00379357 0.00382638 0.0038539 0.00387595 0.00389238 0.0039031 0.00390803 0.00390715 0.00390048 0.00388808 0.00387005 0.00384653 0.0038177 0.00378377 0.00374498 0.00370161 0.00365396 0.00360236 0.00354714 0.00348866 0.0034273 0.00336342 0.0032974 0.00322963 0.00316048 0.00309033 0.00301954 0.00294846 0.00287743 0.00280677 0.00273681 0.00266784 0.00260012 0.00253393 0.00246949 0.00240705 0.00234679 0.00228892 0.00223359 0.00218097 0.0021312 0.0020844 0.00204069 0.00200015 0.00196288 0.00192896 0.00189845 0.00187141 0.00184789 0.00182791 0.00181153 0.00179876 0.00178963 0.00178414 0.00178231 
0.00146987 0.00147152 0.00147645 0.00148466 0.00149615 0.00151092 0.00152895 0.00155023 0.00157475 0.0016025 0.00163344 0.00166756 0.00170481 0.00174517 0.00178859 0.00183501 0.00188437 0.00193659 0.0019916 0.0020493 0.00210958 0.00217231 0.00223736 0.00230457 0.00237378 0.0024448 0.00251742 0.00259141 0.00266654 0.00274254 0.00281913 0.00289602 0.00297289 0.0030494 0.00312522 0.00319999 0.00327334 0.00334489 0.00341427 0.00348109 0.00354497 0.00360555 0.00366245 0.00371532 0.00376384 0.00380769 0.00384659 0.00388028 0.00390853 0.00393116 0.00394802 0.003959 0.00396403 0.00396309 0.00395619 0.00394341 0.00392484 0.00390062 0.00387096 0.00383605 0.00379617 0.00375159 0.00370263 0.00364963 0.00359293 0.00353291 0.00346995 0.00340443 0.00333676 0.00326731 0.00319648 0.00312465 0.00305219 0.00297947 0.00290684 0.00283462 0.00276314 0.00269269 0.00262356 0.00255601 0.00249028 0.0024266 0.00236518 0.0023062 0.00224984 0.00219626 0.00214559 0.00209796 0.00205348 0.00201225 0.00197435 0.00193986 0.00190884 0.00188136 0.00185745 0.00183716 0.00182051 0.00180754 0.00179826 0.00179269 0.00179083 
0.00147831 0.00147998 0.001485 0.00149336 0.00150506 0.0015201 0.00153846 0.00156014 0.00158512 0.00161339 0.00164493 0.00167971 0.00171771 0.00175888 0.00180318 0.00185057 0.00190098 0.00195434 0.00201057 0.00206957 0.00213124 0.00219546 0.00226208 0.00233096 0.00240192 0.00247478 0.00254932 0.00262532 0.00270254 0.0027807 0.00285951 0.00293868 0.00301787 0.00309676 0.00317497 0.00325214 0.00332789 0.00340182 0.00347355 0.00354267 0.00360878 0.00367149 0.00373042 0.00378521 0.00383549 0.00388095 0.00392128 0.0039562 0.0039855 0.00400895 0.00402642 0.00403777 0.00404295 0.00404192 0.0040347 0.00402137 0.00400202 0.00397683 0.00394597 0.00390969 0.00386825 0.00382196 0.00377114 0.00371615 0.00365736 0.00359515 0.00352993 0.0034621 0.00339208 0.00332026 0.00324705 0.00317285 0.00309805 0.00302302 0.00294812 0.0028737 0.00280007 0.00272755 0.00265642 0.00258696 0.0025194 0.00245399 0.00239093 0.0023304 0.00227259 0.00221765 0.00216572 0.00211693 0.00207137 0.00202916 0.00199038 0.00195509 0.00192337 0.00189526 0.00187082 0.00185008 0.00183306 0.00181981 0.00181033 0.00180463 0.00180273 
0.00148912 0.00149083 0.00149596 0.00150451 0.00151648 0.00153186 0.00155065 0.00157284 0.00159841 0.00162736 0.00165967 0.00169531 0.00173425 0.00177647 0.00182192 0.00187056 0.00192232 0.00197714 0.00203494 0.00209563 0.00215911 0.00222524 0.0022939 0.00236493 0.00243816 0.0025134 0.00259044 0.00266904 0.00274896 0.00282992 0.00291162 0.00299375 0.00307597 0.00315793 0.00323925 0.00331956 0.00339843 0.00347547 0.00355026 0.00362237 0.00369139 0.00375689 0.00381848 0.00387576 0.00392835 0.0039759 0.0040181 0.00405465 0.0040853 0.00410983 0.00412808 0.00413993 0.00414529 0.00414414 0.0041365 0.00412244 0.00410209 0.0040756 0.00404319 0.0040051 0.00396163 0.0039131 0.00385985 0.00380227 0.00374074 0.00367568 0.00360752 0.00353667 0.00346359 0.00338868 0.00331238 0.0032351 0.00315725 0.00307922 0.00300138 0.00292409 0.00284768 0.00277247 0.00269876 0.00262682 0.0025569 0.00248924 0.00242406 0.00236153 0.00230185 0.00224516 0.0021916 0.0021413 0.00209436 0.00205088 0.00201095 0.00197464 0.001942 0.0019131 0.00188796 0.00186664 0.00184915 0.00183553 0.00182579 0.00181994 0.00181799 
0.00150227 0.00150403 0.0015093 0.00151808 0.00153038 0.00154619 0.0015655 0.00158831 0.00161461 0.00164438 0.00167763 0.00171432 0.00175443 0.00179793 0.00184478 0.00189495 0.00194838 0.00200499 0.00206473 0.00212749 0.00219317 0.00226166 0.00233283 0.00240651 0.00248253 0.00256071 0.00264083 0.00272265 0.00280591 0.00289033 0.0029756 0.0030614 0.00314737 0.00323314 0.00331832 0.00340251 0.00348527 0.00356617 0.00364476 0.0037206 0.00379324 0.00386222 0.00392711 0.00398749 0.00404296 0.00409313 0.00413766 0.00417623 0.00420857 0.00423445 0.00425368 0.00426614 0.00427173 0.00427042 0.00426225 0.00424729 0.00422567 0.00419756 0.0041632 0.00412286 0.00407685 0.00402552 0.00396924 0.00390842 0.00384349 0.00377488 0.00370305 0.00362846 0.00355157 0.00347283 0.00339269 0.0033116 0.00322997 0.00314822 0.00306674 0.0029859 0.00290606 0.00282753 0.00275063 0.00267563 0.00260281 0.00253238 0.00246458 0.0023996 0.0023376 0.00227876 0.0022232 0.00217105 0.00212241 0.00207739 0.00203605 0.00199848 0.00196472 0.00193483 0.00190885 0.00188682 0.00186875 0.00185468 0.00184462 0.00183858 0.00183656 
0.00151773 0.00151954 0.00152498 0.00153404 0.00154672 0.00156303 0.00158296 0.0016065 0.00163366 0.00166442 0.00169877 0.00173671 0.0017782 0.00182322 0.00187174 0.00192373 0.00197912 0.00203787 0.0020999 0.00216512 0.00223344 0.00230474 0.00237889 0.00245573 0.00253509 0.00261678 0.00270057 0.00278624 0.00287349 0.00296206 0.00305161 0.00314181 0.00323229 0.00332264 0.00341247 0.00350133 0.00358877 0.00367432 0.00375751 0.00383785 0.00391486 0.00398804 0.00405693 0.00412107 0.00418001 0.00423335 0.0042807 0.00432172 0.00435611 0.00438362 0.00440403 0.00441722 0.00442308 0.00442159 0.00441276 0.0043967 0.00437353 0.00434346 0.00430673 0.00426366 0.00421456 0.00415984 0.00409988 0.00403515 0.0039661 0.0038932 0.00381695 0.00373784 0.00365636 0.00357301 0.00348826 0.00340257 0.00331641 0.0032302 0.00314436 0.00305928 0.00297532 0.00289282 0.0028121 0.00273346 0.00265716 0.00258344 0.00251252 0.0024446 0.00237986 0.00231845 0.00226051 0.00220616 0.00215551 0.00210864 0.00206564 0.00202657 0.00199148 0.00196043 0.00193345 0.00191057 0.00189182 0.00187722 0.00186677 0.00186051 0.00185842 
0.00153545 0.00153733 0.00154296 0.00155234 0.00156547 0.00158236 0.001603 0.00162739 0.00165554 0.00168743 0.00172307 0.00176244 0.00180552 0.00185231 0.00190276 0.00195685 0.00201454 0.00207576 0.00214045 0.00220854 0.00227992 0.00235449 0.00243211 0.00251263 0.00259588 0.00268167 0.00276976 0.00285992 0.00295186 0.00304529 0.00313986 0.00323523 0.00333099 0.00342674 0.00352204 0.00361641 0.00370937 0.00380042 0.00388903 0.00397469 0.00405687 0.00413503 0.00420866 0.00427725 0.00434032 0.00439742 0.00444812 0.00449205 0.00452886 0.0045583 0.00458012 0.00459417 0.00460034 0.00459861 0.004589 0.00457161 0.0045466 0.00451418 0.00447464 0.0044283 0.00437555 0.00431678 0.00425248 0.0041831 0.00410917 0.0040312 0.00394972 0.00386527 0.00377838 0.00368958 0.00359939 0.00350831 0.00341682 0.00332537 0.00323442 0.00314435 0.00305557 0.00296843 0.00288326 0.00280036 0.00272 0.00264243 0.00256788 0.00249655 0.00242861 0.00236422 0.00230352 0.00224661 0.00219362 0.00214461 0.00209968 0.00205887 0.00202224 0.00198984 0.0019617 0.00193784 0.0019183 0.00190308 0.0018922 0.00188567 0.00188349 
0.00155539 0.00155734 0.00156318 0.00157292 0.00158657 0.00160411 0.00162556 0.00165092 0.00168019 0.00171337 0.00175047 0.00179147 0.00183637 0.00188515 0.0019378 0.00199429 0.00205458 0.00211862 0.00218636 0.00225771 0.0023326 0.0024109 0.0024925 0.00257725 0.00266496 0.00275545 0.00284849 0.00294382 0.00304115 0.00314018 0.00324056 0.0033419 0.00344378 0.00354578 0.00364742 0.00374818 0.00384756 0.003945 0.00403994 0.0041318 0.00422001 0.00430398 0.00438315 0.00445694 0.00452484 0.00458634 0.00464096 0.00468828 0.00472794 0.00475963 0.00478309 0.00479814 0.00480467 0.00480265 0.00479211 0.00477315 0.00474596 0.00471079 0.00466793 0.00461776 0.00456071 0.00449722 0.00442781 0.00435301 0.00427337 0.00418948 0.00410191 0.00401124 0.00391807 0.00382295 0.00372646 0.00362912 0.00353146 0.00343396 0.00333709 0.00324129 0.00314696 0.00305448 0.00296418 0.00287638 0.00279136 0.00270939 0.00263068 0.00255544 0.00248384 0.00241604 0.00235218 0.00229236 0.00223669 0.00218525 0.00213811 0.00209533 0.00205695 0.00202301 0.00199355 0.00196858 0.00194813 0.00193221 0.00192083 0.00191401 0.00191173 
0.00157749 0.00157952 0.0015856 0.00159575 0.00160996 0.00162823 0.00165059 0.00167703 0.00170755 0.00174218 0.00178091 0.00182374 0.00187067 0.0019217 0.00197682 0.002036 0.00209922 0.00216643 0.00223759 0.00231263 0.00239146 0.00247399 0.00256008 0.0026496 0.00274238 0.0028382 0.00293685 0.00303806 0.00314153 0.00324695 0.00335394 0.0034621 0.00357099 0.00368014 0.00378905 0.00389716 0.00400391 0.0041087 0.00421092 0.00430994 0.00440511 0.00449579 0.00458136 0.00466118 0.00473467 0.00480125 0.00486041 0.00491168 0.00495463 0.00498892 0.00501427 0.00503047 0.00503741 0.00503504 0.00502339 0.0050026 0.00497287 0.00493447 0.00488775 0.00483313 0.00477108 0.00470211 0.00462678 0.0045457 0.00445948 0.00436875 0.00427416 0.00417634 0.00407594 0.00397357 0.00386984 0.00376534 0.00366062 0.00355621 0.00345261 0.00335026 0.00324962 0.00315105 0.00305493 0.00296158 0.00287129 0.00278433 0.00270091 0.00262125 0.00254553 0.00247388 0.00240646 0.00234336 0.00228468 0.0022305 0.00218088 0.00213588 0.00209553 0.00205987 0.00202892 0.00200271 0.00198125 0.00196454 0.00195261 0.00194544 0.00194306 
0.00160168 0.0016038 0.00161015 0.00162074 0.00163558 0.00165467 0.00167802 0.00170565 0.00173757 0.00177379 0.00181432 0.00185918 0.00190837 0.00196189 0.00201974 0.00208192 0.00214839 0.00221914 0.00229411 0.00237326 0.0024565 0.00254374 0.00263487 0.00272973 0.00282817 0.00292999 0.00303494 0.00314277 0.00325317 0.00336579 0.00348026 0.00359614 0.00371297 0.00383024 0.0039474 0.00406387 0.00417903 0.00429221 0.00440275 0.00450995 0.0046131 0.00471148 0.00480439 0.00489113 0.00497104 0.00504348 0.00510786 0.00516366 0.00521039 0.00524768 0.00527519 0.00529271 0.00530009 0.00529729 0.00528435 0.00526143 0.00522874 0.0051866 0.00513541 0.00507565 0.00500783 0.00493254 0.00485042 0.00476212 0.00466834 0.00456979 0.00446716 0.00436118 0.00425253 0.00414191 0.00402997 0.00391734 0.00380463 0.00369239 0.00358117 0.00347144 0.00336367 0.00325827 0.00315561 0.00305602 0.00295981 0.00286725 0.00277857 0.00269397 0.00261363 0.0025377 0.0024663 0.00239955 0.00233752 0.00228029 0.00222792 0.00218045 0.00213791 0.00210034 0.00206775 0.00204015 0.00201757 0.00199999 0.00198744 0.00197991 0.00197739 
0.0016279 0.00163011 0.00163676 0.00164783 0.00166335 0.00168333 0.00170778 0.00173671 0.00177016 0.00180813 0.00185064 0.00189773 0.00194939 0.00200565 0.00206651 0.00213198 0.00220204 0.00227668 0.00235587 0.00243955 0.00252767 0.00262014 0.00271684 0.00281765 0.00292239 0.00303088 0.00314287 0.00325809 0.00337622 0.00349692 0.00361977 0.00374433 0.00387009 0.00399652 0.00412301 0.00424893 0.00437359 0.0044963 0.00461629 0.00473279 0.00484502 0.00495217 0.00505346 0.00514811 0.00523536 0.0053145 0.00538485 0.00544583 0.0054969 0.0055376 0.00556758 0.00558658 0.00559445 0.00559113 0.00557669 0.00555127 0.00551516 0.00546872 0.00541238 0.0053467 0.00527226 0.00518973 0.00509983 0.0050033 0.0049009 0.00479343 0.00468168 0.00456643 0.00444846 0.0043285 0.00420728 0.00408549 0.00396378 0.00384276 0.00372299 0.003605 0.00348927 0.00337622 0.00326626 0.00315973 0.00305694 0.00295817 0.00286364 0.00277357 0.00268812 0.00260744 0.00253166 0.00246086 0.00239514 0.00233454 0.00227914 0.00222895 0.002184 0.00214433 0.00210993 0.00208082 0.002057 0.00203847 0.00202523 0.00201729 0.00201465 
0.00165606 0.00165838 0.00166533 0.00167694 0.00169321 0.00171415 0.00173978 0.00177014 0.00180524 0.00184511 0.00188978 0.00193929 0.00199365 0.0020529 0.00211705 0.00218611 0.0022601 0.002339 0.0024228 0.00251146 0.00260494 0.00270315 0.002806 0.00291336 0.00302506 0.00314093 0.00326071 0.00338413 0.00351086 0.00364055 0.00377275 0.003907 0.00404276 0.00417944 0.0043164 0.00445295 0.00458834 0.00472178 0.00485245 0.00497948 0.005102 0.00521912 0.00532994 0.00543358 0.00552919 0.00561596 0.00569313 0.00576002 0.00581601 0.00586061 0.00589339 0.00591406 0.00592245 0.00591851 0.0059023 0.00587401 0.00583395 0.00578254 0.00572029 0.00564782 0.00556582 0.00547502 0.00537625 0.00527035 0.00515817 0.0050406 0.00491853 0.00479283 0.00466433 0.00453388 0.00440225 0.00427019 0.00413842 0.00400759 0.00387829 0.0037511 0.00362652 0.003505 0.00338695 0.00327274 0.00316268 0.00305705 0.00295609 0.00285999 0.00276892 0.00268303 0.00260243 0.00252721 0.00245743 0.00239316 0.00233444 0.00228128 0.00223371 0.00219174 0.00215537 0.0021246 0.00209943 0.00207986 0.00206589 0.00205751 0.00205471 
0.00168607 0.0016885 0.0016958 0.00170797 0.00172504 0.00174702 0.00177394 0.00180583 0.00184271 0.00188464 0.00193165 0.00198377 0.00204105 0.00210353 0.00217124 0.00224421 0.00232246 0.002406 0.00249482 0.00258891 0.00268824 0.00279273 0.0029023 0.00301684 0.00313619 0.00326017 0.00338853 0.003521 0.00365724 0.00379688 0.00393946 0.00408448 0.00423136 0.00437949 0.00452815 0.0046766 0.00482402 0.00496954 0.00511224 0.00525115 0.00538531 0.0055137 0.00563532 0.00574916 0.00585427 0.00594972 0.00603464 0.00610825 0.00616985 0.00621885 0.0062548 0.00627735 0.00628631 0.00628161 0.00626333 0.00623171 0.0061871 0.00612999 0.00606096 0.00598073 0.00589008 0.00578988 0.00568103 0.00556449 0.00544124 0.00531228 0.00517857 0.0050411 0.00490081 0.0047586 0.00461534 0.00447184 0.00432886 0.00418713 0.00404727 0.0039099 0.00377553 0.00364467 0.00351772 0.00339506 0.00327701 0.00316386 0.00305584 0.00295315 0.00285595 0.00276437 0.00267852 0.00259848 0.00252431 0.00245604 0.00239371 0.00233733 0.00228691 0.00224245 0.00220394 0.00217138 0.00214476 0.00212406 0.00210929 0.00210043 0.00209747 
0.00171783 0.00172039 0.00172805 0.00174084 0.00175876 0.00178186 0.00181015 0.00184367 0.00188248 0.00192661 0.00197612 0.00203106 0.00209149 0.00215745 0.00222899 0.00230617 0.00238902 0.00247757 0.00257184 0.00267181 0.00277748 0.0028888 0.0030057 0.00312807 0.00325577 0.00338862 0.00352639 0.00366879 0.0038155 0.00396611 0.00412014 0.00427708 0.00443631 0.00459715 0.00475886 0.00492059 0.00508147 0.00524052 0.00539672 0.00554901 0.00569629 0.00583741 0.00597124 0.00609665 0.00621253 0.00631783 0.00641155 0.00649279 0.00656075 0.00661476 0.00665429 0.00667894 0.00668848 0.00668286 0.00666218 0.00662671 0.00657685 0.00651318 0.00643639 0.00634729 0.0062468 0.00613588 0.0060156 0.00588703 0.00575129 0.00560948 0.00546271 0.00531206 0.00515857 0.00500324 0.00484702 0.00469081 0.00453542 0.00438162 0.00423011 0.00408151 0.0039364 0.00379526 0.00365855 0.00352665 0.00339988 0.00327853 0.00316283 0.00305297 0.00294911 0.00285136 0.00275982 0.00267456 0.00259562 0.00252304 0.00245681 0.00239696 0.00234347 0.00229633 0.00225552 0.00222103 0.00219284 0.00217094 0.0021553 0.00214592 0.0021428 
0.00175125 0.00175393 0.00176198 0.00177542 0.00179426 0.00181854 0.0018483 0.00188357 0.00192442 0.00197091 0.00202309 0.00208104 0.00214482 0.00221451 0.00229017 0.00237187 0.00245967 0.00255361 0.00265373 0.00276005 0.00287257 0.00299128 0.0031161 0.00324697 0.00338375 0.00352627 0.0036743 0.00382758 0.00398574 0.00414839 0.00431504 0.00448512 0.00465799 0.00483293 0.0050091 0.00518563 0.00536151 0.00553569 0.00570704 0.00587435 0.00603639 0.00619188 0.00633951 0.00647801 0.00660609 0.00672257 0.00682628 0.00691618 0.00699137 0.00705105 0.0070946 0.00712159 0.00713175 0.00712502 0.00710152 0.00706157 0.00700567 0.00693447 0.00684878 0.00674956 0.00663784 0.00651476 0.00638152 0.00623936 0.00608953 0.00593329 0.00577187 0.00560648 0.00543827 0.00526835 0.00509776 0.00492747 0.00475837 0.00459128 0.00442695 0.00426604 0.00410915 0.00395679 0.00380944 0.00366747 0.00353122 0.00340096 0.00327694 0.00315932 0.00304825 0.00294384 0.00284617 0.00275529 0.00267123 0.00259401 0.00252361 0.00246003 0.00240324 0.00235323 0.00230996 0.00227341 0.00224354 0.00222034 0.00220379 0.00219386 0.00219055 
0.0017862 0.00178902 0.00179748 0.00181161 0.00183142 0.00185695 0.00188826 0.00192539 0.00196841 0.0020174 0.00207242 0.00213357 0.00220093 0.00227459 0.00235464 0.00244116 0.00253424 0.00263395 0.00274034 0.00285348 0.00297337 0.00310003 0.00323341 0.00337346 0.00352007 0.00367307 0.00383226 0.00399737 0.00416804 0.00434387 0.00452434 0.00470887 0.00489677 0.00508727 0.00527948 0.00547242 0.00566501 0.00585608 0.00604437 0.00622854 0.00640718 0.00657886 0.00674208 0.00689538 0.00703731 0.00716645 0.00728151 0.00738126 0.00746463 0.00753073 0.00757883 0.00760842 0.00761921 0.00761113 0.00758433 0.00753919 0.0074763 0.00739644 0.00730056 0.00718976 0.00706526 0.00692837 0.00678046 0.00662295 0.00645727 0.00628482 0.00610701 0.00592517 0.00574059 0.00555448 0.00536799 0.00518216 0.00499796 0.00481628 0.0046379 0.00446353 0.00429379 0.00412922 0.0039703 0.00381741 0.00367089 0.00353102 0.00339801 0.00327203 0.00315322 0.00304166 0.00293741 0.00284051 0.00275097 0.00266878 0.00259392 0.00252636 0.00246606 0.00241299 0.0023671 0.00232835 0.0022967 0.00227212 0.00225459 0.00224407 0.00224057 