<?xml version="1.0"?>
<VTKFile type="StructuredGrid" version="0.1">
    <StructuredGrid WholeExtent="0 100 0 100 0 0">
        <Piece Extent="0 100 0 100 0 0">
            <Points>
                <DataArray type="Float64" NumberOfComponents="3" format="ascii">
-15 -15 0
-15 -14.7 0
-15 -14.4 0
-15 -14.1 0
-15 -13.8 0
-15 -13.5 0
-15 -13.2 0
-15 -12.9 0
-15 -12.6 0
-15 -12.3 0
-15 -12 0
-15 -11.7 0
-15 -11.4 0
-15 -11.1 0
-15 -10.8 0
-15 -10.5 0
-15 -10.2 0
-15 -9.9 0
-15 -9.6 0
-15 -9.3 0
-15 -9 0
-15 -8.7 0
-15 -8.4 0
-15 -8.1 0
-15 -7.8 0
-15 -7.5 0
-15 -7.2 0
-15 -6.9 0
-15 -6.6 0
-15 -6.3 0
-15 -6 0
-15 -5.7 0
-15 -5.4 0
-15 -5.1 0
-15 -4.8 0
-15 -4.5 0
-15 -4.2 0
-15 -3.9 0
-15 -3.6 0
-15 -3.3 0
-15 -3 0
-15 -2.7 0
-15 -2.4 0
-15 -2.1 0
-15 -1.8 0
-15 -1.5 0
-15 -1.2 0
-15 -0.9 0
-15 -0.6 0
-15 -0.3 0
-15 0 0
-15 0.3 0
-15 0.6 0
-15 0.9 0
-15 1.2 0
-15 1.5 0
-15 1.8 0
-15 2.1 0
-15 2.4 0
-15 2.7 0
-15 3 0
-15 3.3 0
-15 3.6 0
-15 3.9 0
-15 4.2 0
-15 4.5 0
-15 4.8 0
-15 5.1 0
-15 5.4 0
-15 5.7 0
-15 6 0
-15 6.3 0
-15 6.6 0
-15 6.9 0
-15 7.2 0
-15 7.5 0
-15 7.8 0
-15 8.1 0
-15 8.4 0
-15 8.7 0
-15 9 0
-15 9.3 0
-15 9.6 0
-15 9.9 0
-15 10.2 0
-15 10.5 0
-15 10.8 0
-15 11.1 0
-15 11.4 0
-15 11.7 0
-15 12 0
-15 12.3 0
-15 12.6 0
-15 12.9 0
-15 13.2 0
-15 13.5 0
-15 13.8 0
-15 14.1 0
-15 14.4 0
-15 14.7 0
-15 15 0
-14.7 -15 0
-14.7 -14.7 0
-14.7 -14.4 0
-14.7 -14.1 0
-14.7 -13.8 0
-14.7 -13.5 0
-14.7 -13.2 0
-14.7 -12.9 0
-14.7 -12.6 0
-14.7 -12.3 0
-14.7 -12 0
-14.7 -11.7 0
-14.7 -11.4 0
-14.7 -11.1 0
-14.7 -10.8 0
-14.7 -10.5 0
-14.7 -10.2 0
-14.7 -9.9 0
-14.7 -9.6 0
-14.7 -9.3 0
-14.7 -9 0
-14.7 -8.7 0
-14.7 -8.4 0
-14.7 -8.1 0
-14.7 -7.8 0
-14.7 -7.5 0
-14.7 -7.2 0
-14.7 -6.9 0
-14.7 -6.6 0
-14.7 -6.3 0
-14.7 -6 0
-14.7 -5.7 0
-14.7 -5.4 0
-14.7 -5.1 0
-14.7 -4.8 0
-14.7 -4.5 0
-14.7 -4.2 0
-14.7 -3.9 0
-14.7 -3.6 0
-14.7 -3.3 0
-14.7 -3 0
-14.7 -2.7 0
-14.7 -2.4 0
-14.7 -2.1 0
-14.7 -1.8 0
-14.7 -1.5 0
-14.7 -1.2 0
-14.7 -0.9 0
-14.7 -0.6 0
-14.7 -0.3 0
-14.7 0 0
-14.7 0.3 0
-14.7 0.6 0
-14.7 0.9 0
-14.7 1.2 0
-14.7 1.5 0
-14.7 1.8 0
-14.7 2.1 0
-14.7 2.4 0
-14.7 2.7 0
-14.7 3 0
-14.7 3.3 0
-14.7 3.6 0
-14.7 3.9 0
-14.7 4.2 0
-14.7 4.5 0
-14.7 4.8 0
-14.7 5.1 0
-14.7 5.4 0
-14.7 5.7 0
-14.7 6 0
-14.7 6.3 0
-14.7 6.6 0
-14.7 6.9 0
-14.7 7.2 0
-14.7 7.5 0
-14.7 7.8 0
-14.7 8.1 0
-14.7 8.4 0
-14.7 8.7 0
-14.7 9 0
-14.7 9.3 0
-14.7 9.6 0
-14.7 9.9 0
-14.7 10.2 0
-14.7 10.5 0
-14.7 10.8 0
-14.7 11.1 0
-14.7 11.4 0
-14.7 11.7 0
-14.7 12 0
-14.7 12.3 0
-14.7 12.6 0
-14.7 12.9 0
-14.7 13.2 0
-14.7 13.5 0
-14.7 13.8 0
-14.7 14.1 0
-14.7 14.4 0
-14.7 14.7 0
-14.7 15 0
-14.4 -15 0
-14.4 -14.7 0
-14.4 -14.4 0
-14.4 -14.1 0
-14.4 -13.8 0
-14.4 -13.5 0
-14.4 -13.2 0
-14.4 -12.9 0
-14.4 -12.6 0
-14.4 -12.3 0
-14.4 -12 0
-14.4 -11.7 0
-14.4 -11.4 0
-14.4 -11.1 0
-14.4 -10.8 0
-14.4 -10.5 0
-14.4 -10.2 0
-14.4 -9.9 0
-14.4 -9.6 0
-14.4 -9.3 0
-14.4 -9 0
-14.4 -8.7 0
-14.4 -8.4 0
-14.4 -8.1 0
-14.4 -7.8 0
-14.4 -7.5 0
-14.4 -7.2 0
-14.4 -6.9 0
-14.4 -6.6 0
-14.4 -6.3 0
-14.4 -6 0
-14.4 -5.7 0
-14.4 -5.4 0
-14.4 -5.1 0
-14.4 -4.8 0
-14.4 -4.5 0
-14.4 -4.2 0
-14.4 -3.9 0
-14.4 -3.6 0
-14.4 -3.3 0
-14.4 -3 0
-14.4 -2.7 0
-14.4 -2.4 0
-14.4 -2.1 0
-14.4 -1.8 0
-14.4 -1.5 0
-14.4 -1.2 0
-14.4 -0.9 0
-14.4 -0.6 0
-14.4 -0.3 0
-14.4 0 0
-14.4 0.3 0
-14.4 0.6 0
-14.4 0.9 0
-14.4 1.2 0
-14.4 1.5 0
-14.4 1.8 0
-14.4 2.1 0
-14.4 2.4 0
-14.4 2.7 0
-14.4 3 0
-14.4 3.3 0
-14.4 3.6 0
-14.4 3.9 0
-14.4 4.2 0
-14.4 4.5 0
-14.4 4.8 0
-14.4 5.1 0
-14.4 5.4 0
-14.4 5.7 0
-14.4 6 0
-14.4 6.3 0
-14.4 6.6 0
-14.4 6.9 0
-14.4 7.2 0
-14.4 7.5 0
-14.4 7.8 0
-14.4 8.1 0
-14.4 8.4 0
-14.4 8.7 0
-14.4 9 0
-14.4 9.3 0
-14.4 9.6 0
-14.4 9.9 0
-14.4 10.2 0
-14.4 10.5 0
-14.4 10.8 0
-14.4 11.1 0
-14.4 11.4 0
-14.4 11.7 0
-14.4 12 0
-14.4 12.3 0
-14.4 12.6 0
-14.4 12.9 0
-14.4 13.2 0
-14.4 13.5 0
-14.4 13.8 0
-14.4 14.1 0
-14.4 14.4 0
-14.4 14.7 0
-14.4 15 0
-14.1 -15 0
-14.1 -14.7 0
-14.1 -14.4 0
-14.1 -14.1 0
-14.1 -13.8 0
-14.1 -13.5 0
-14.1 -13.2 0
-14.1 -12.9 0
-14.1 -12.6 0
-14.1 -12.3 0
-14.1 -12 0
-14.1 -11.7 0
-14.1 -11.4 0
-14.1 -11.1 0
-14.1 -10.8 0
-14.1 -10.5 0
-14.1 -10.2 0
-14.1 -9.9 0
-14.1 -9.6 0
-14.1 -9.3 0
-14.1 -9 0
-14.1 -8.7 0
-14.1 -8.4 0
-14.1 -8.1 0
-14.1 -7.8 0
-14.1 -7.5 0
-14.1 -7.2 0
-14.1 -6.9 0
-14.1 -6.6 0
-14.1 -6.3 0
-14.1 -6 0
-14.1 -5.7 0
-14.1 -5.4 0
-14.1 -5.1 0
-14.1 -4.8 0
-14.1 -4.5 0
-14.1 -4.2 0
-14.1 -3.9 0
-14.1 -3.6 0
-14.1 -3.3 0
-14.1 -3 0
-14.1 -2.7 0
-14.1 -2.4 0
-14.1 -2.1 0
-14.1 -1.8 0
-14.1 -1.5 0
-14.1 -1.2 0
-14.1 -0.9 0
-14.1 -0.6 0
-14.1 -0.3 0
-14.1 0 0
-14.1 0.3 0
-14.1 0.6 0
-14.1 0.9 0
-14.1 1.2 0
-14.1 1.5 0
-14.1 1.8 0
-14.1 2.1 0
-14.1 2.4 0
-14.1 2.7 0
-14.1 3 0
-14.1 3.3 0
-14.1 3.6 0
-14.1 3.9 0
-14.1 4.2 0
-14.1 4.5 0
-14.1 4.8 0
-14.1 5.1 0
-14.1 5.4 0
-14.1 5.7 0
-14.1 6 0
-14.1 6.3 0
-14.1 6.6 0
-14.1 6.9 0
-14.1 7.2 0
-14.1 7.5 0
-14.1 7.8 0
-14.1 8.1 0
-14.1 8.4 0
-14.1 8.7 0
-14.1 9 0
-14.1 9.3 0
-14.1 9.6 0
-14.1 9.9 0
-14.1 10.2 0
-14.1 10.5 0
-14.1 10.8 0
-14.1 11.1 0
-14.1 11.4 0
-14.1 11.7 0
-14.1 12 0
-14.1 12.3 0
-14.1 12.6 0
-14.1 12.9 0
-14.1 13.2 0
-14.1 13.5 0
-14.1 13.8 0
-14.1 14.1 0
-14.1 14.4 0
-14.1 14.7 0
-14.1 15 0
-13.8 -15 0
-13.8 -14.7 0
-13.8 -14.4 0
-13.8 -14.1 0
-13.8 -13.8 0
-13.8 -13.5 0
-13.8 -13.2 0
-13.8 -12.9 0
-13.8 -12.6 0
-13.8 -12.3 0
-13.8 -12 0
-13.8 -11.7 0
-13.8 -11.4 0
-13.8 -11.1 0
-13.8 -10.8 0
-13.8 -10.5 0
-13.8 -10.2 0
-13.8 -9.9 0
-13.8 -9.6 0
-13.8 -9.3 0
-13.8 -9 0
-13.8 -8.7 0
-13.8 -8.4 0
-13.8 -8.1 0
-13.8 -7.8 0
-13.8 -7.5 0
-13.8 -7.2 0
-13.8 -6.9 0
-13.8 -6.6 0
-13.8 -6.3 0
-13.8 -6 0
-13.8 -5.7 0
-13.8 -5.4 0
-13.8 -5.1 0
-13.8 -4.8 0
-13.8 -4.5 0
-13.8 -4.2 0
-13.8 -3.9 0
-13.8 -3.6 0
-13.8 -3.3 0
-13.8 -3 0
-13.8 -2.7 0
-13.8 -2.4 0
-13.8 -2.1 0
-13.8 -1.8 0
-13.8 -1.5 0
-13.8 -1.2 0
-13.8 -0.9 0
-13.8 -0.6 0
-13.8 -0.3 0
-13.8 0 0
-13.8 0.3 0
-13.8 0.6 0
-13.8 0.9 0
-13.8 1.2 0
-13.8 1.5 0
-13.8 1.8 0
-13.8 2.1 0
-13.8 2.4 0
-13.8 2.7 0
-13.8 3 0
-13.8 3.3 0
-13.8 3.6 0
-13.8 3.9 0
-13.8 4.2 0
-13.8 4.5 0
-13.8 4.8 0
-13.8 5.1 0
-13.8 5.4 0
-13.8 5.7 0
-13.8 6 0
-13.8 6.3 0
-13.8 6.6 0
-13.8 6.9 0
-13.8 7.2 0
-13.8 7.5 0
-13.8 7.8 0
-13.8 8.1 0
-13.8 8.4 0
-13.8 8.7 0
-13.8 9 0
-13.8 9.3 0
-13.8 9.6 0
-13.8 9.9 0
-13.8 10.2 0
-13.8 10.5 0
-13.8 10.8 0
-13.8 11.1 0
-13.8 11.4 0
-13.8 11.7 0
-13.8 12 0
-13.8 12.3 0
-13.8 12.6 0
-13.8 12.9 0
-13.8 13.2 0
-13.8 13.5 0
-13.8 13.8 0
-13.8 14.1 0
-13.8 14.4 0
-13.8 14.7 0
-13.8 15 0
-13.5 -15 0
-13.5 -14.7 0
-13.5 -14.4 0
-13.5 -14.1 0
-13.5 -13.8 0
-13.5 -13.5 0
-13.5 -13.2 0
-13.5 -12.9 0
-13.5 -12.6 0
-13.5 -12.3 0
-13.5 -12 0
-13.5 -11.7 0
-13.5 -11.4 0
-13.5 -11.1 0
-13.5 -10.8 0
-13.5 -10.5 0
-13.5 -10.2 0
-13.5 -9.9 0
-13.5 -9.6 0
-13.5 -9.3 0
-13.5 -9 0
-13.5 -8.7 0
-13.5 -8.4 0
-13.5 -8.1 0
-13.5 -7.8 0
-13.5 -7.5 0
-13.5 -7.2 0
-13.5 -6.9 0
-13.5 -6.6 0
-13.5 -6.3 0
-13.5 -6 0
-13.5 -5.7 0
-13.5 -5.4 0
-13.5 -5.1 0
-13.5 -4.8 0
-13.5 -4.5 0
-13.5 -4.2 0
-13.5 -3.9 0
-13.5 -3.6 0
-13.5 -3.3 0
-13.5 -3 0
-13.5 -2.7 0
-13.5 -2.4 0
-13.5 -2.1 0
-13.5 -1.8 0
-13.5 -1.5 0
-13.5 -1.2 0
-13.5 -0.9 0
-13.5 -0.6 0
-13.5 -0.3 0
-13.5 0 0
-13.5 0.3 0
-13.5 0.6 0
-13.5 0.9 0
-13.5 1.2 0
-13.5 1.5 0
-13.5 1.8 0
-13.5 2.1 0
-13.5 2.4 0
-13.5 2.7 0
-13.5 3 0
-13.5 3.3 0
-13.5 3.6 0
-13.5 3.9 0
-13.5 4.2 0
-13.5 4.5 0
-13.5 4.8 0
-13.5 5.1 0
-13.5 5.4 0
-13.5 5.7 0
-13.5 6 0
-13.5 6.3 0
-13.5 6.6 0
-13.5 6.9 0
-13.5 7.2 0
-13.5 7.5 0
-13.5 7.8 0
-13.5 8.1 0
-13.5 8.4 0
-13.5 8.7 0
-13.5 9 0
-13.5 9.3 0
-13.5 9.6 0
-13.5 9.9 0
-13.5 10.2 0
-13.5 10.5 0
-13.5 10.8 0
-13.5 11.1 0
-13.5 11.4 0
-13.5 11.7 0
-13.5 12 0
-13.5 12.3 0
-13.5 12.6 0
-13.5 12.9 0
-13.5 13.2 0
-13.5 13.5 0
-13.5 13.8 0
-13.5 14.1 0
-13.5 14.4 0
-13.5 14.7 0
-13.5 15 0
-13.2 -15 0
-13.2 -14.7 0
-13.2 -14.4 0
-13.2 -14.1 0
-13.2 -13.8 0
-13.2 -13.5 0
-13.2 -13.2 0
-13.2 -12.9 0
-13.2 -12.6 0
-13.2 -12.3 0
-13.2 -12 0
-13.2 -11.7 0
-13.2 -11.4 0
-13.2 -11.1 0
-13.2 -10.8 0
-13.2 -10.5 0
-13.2 -10.2 0
-13.2 -9.9 0
-13.2 -9.6 0
-13.2 -9.3 0
-13.2 -9 0
-13.2 -8.7 0
-13.2 -8.4 0
-13.2 -8.1 0
-13.2 -7.8 0
-13.2 -7.5 0
-13.2 -7.2 0
-13.2 -6.9 0
-13.2 -6.6 0
-13.2 -6.3 0
-13.2 -6 0
-13.2 -5.7 0
-13.2 -5.4 0
-13.2 -5.1 0
-13.2 -4.8 0
-13.2 -4.5 0
-13.2 -4.2 0
-13.2 -3.9 0
-13.2 -3.6 0
-13.2 -3.3 0
-13.2 -3 0
-13.2 -2.7 0
-13.2 -2.4 0
-13.2 -2.1 0
-13.2 -1.8 0
-13.2 -1.5 0
-13.2 -1.2 0
-13.2 -0.9 0
-13.2 -0.6 0
-13.2 -0.3 0
-13.2 0 0
-13.2 0.3 0
-13.2 0.6 0
-13.2 0.9 0
-13.2 1.2 0
-13.2 1.5 0
-13.2 1.8 0
-13.2 2.1 0
-13.2 2.4 0
-13.2 2.7 0
-13.2 3 0
-13.2 3.3 0
-13.2 3.6 0
-13.2 3.9 0
-13.2 4.2 0
-13.2 4.5 0
-13.2 4.8 0
-13.2 5.1 0
-13.2 5.4 0
-13.2 5.7 0
-13.2 6 0
-13.2 6.3 0
-13.2 6.6 0
-13.2 6.9 0
-13.2 7.2 0
-13.2 7.5 0
-13.2 7.8 0
-13.2 8.1 0
-13.2 8.4 0
-13.2 8.7 0
-13.2 9 0
-13.2 9.3 0
-13.2 9.6 0
-13.2 9.9 0
-13.2 10.2 0
-13.2 10.5 0
-13.2 10.8 0
-13.2 11.1 0
-13.2 11.4 0
-13.2 11.7 0
-13.2 12 0
-13.2 12.3 0
-13.2 12.6 0
-13.2 12.9 0
-13.2 13.2 0
-13.2 13.5 0
-13.2 13.8 0
-13.2 14.1 0
-13.2 14.4 0
-13.2 14.7 0
-13.2 15 0
-12.9 -15 0
-12.9 -14.7 0
-12.9 -14.4 0
-12.9 -14.1 0
-12.9 -13.8 0
-12.9 -13.5 0
-12.9 -13.2 0
-12.9 -12.9 0
-12.9 -12.6 0
-12.9 -12.3 0
-12.9 -12 0
-12.9 -11.7 0
-12.9 -11.4 0
-12.9 -11.1 0
-12.9 -10.8 0
-12.9 -10.5 0
-12.9 -10.2 0
-12.9 -9.9 0
-12.9 -9.6 0
-12.9 -9.3 0
-12.9 -9 0
-12.9 -8.7 0
-12.9 -8.4 0
-12.9 -8.1 0
-12.9 -7.8 0
-12.9 -7.5 0
-12.9 -7.2 0
-12.9 -6.9 0
-12.9 -6.6 0
-12.9 -6.3 0
-12.9 -6 0
-12.9 -5.7 0
-12.9 -5.4 0
-12.9 -5.1 0
-12.9 -4.8 0
-12.9 -4.5 0
-12.9 -4.2 0
-12.9 -3.9 0
-12.9 -3.6 0
-12.9 -3.3 0
-12.9 -3 0
-12.9 -2.7 0
-12.9 -2.4 0
-12.9 -2.1 0
-12.9 -1.8 0
-12.9 -1.5 0
-12.9 -1.2 0
-12.9 -0.9 0
-12.9 -0.6 0
-12.9 -0.3 0
-12.9 0 0
-12.9 0.3 0
-12.9 0.6 0
-12.9 0.9 0
-12.9 1.2 0
-12.9 1.5 0
-12.9 1.8 0
-12.9 2.1 0
-12.9 2.4 0
-12.9 2.7 0
-12.9 3 0
-12.9 3.3 0
-12.9 3.6 0
-12.9 3.9 0
-12.9 4.2 0
-12.9 4.5 0
-12.9 4.8 0
-12.9 5.1 0
-12.9 5.4 0
-12.9 5.7 0
-12.9 6 0
-12.9 6.3 0
-12.9 6.6 0
-12.9 6.9 0
-12.9 7.2 0
-12.9 7.5 0
-12.9 7.8 0
-12.9 8.1 0
-12.9 8.4 0
-12.9 8.7 0
-12.9 9 0
[...]
            <PointData>
                <DataArray type="Float64" Name="c1" format="ascii">
0.000956078 0.000957174 0.00096046 0.000965931 0.000973579 0.000983392 0.000995355 0.00100945 0.00102565 0.00104393 0.00106426 0.0010866 0.00111092 0.00113716 0.00116527 0.0011952 0.00122688 0.00126024 0.0012952 0.00133169 0.0013696 0.00140883 0.00144929 0.00149086 0.0015334 0.00157679 0.0016209 0.00166557 0.00171064 0.00175596 0.00180136 0.00184665 0.00189167 0.00193621 0.0019801 0.00202313 0.00206512 0.00210587 0.00214517 0.00218285 0.00221871 0.00225256 0.00228423 0.00231356 0.00234038 0.00236455 0.00238594 0.00240442 0.0024199 0.00243228 0.00244152 0.00244754 0.00245034 0.00244989 0.00244621 0.00243932 0.00242929 0.00241618 0.00240007 0.00238107 0.0023593 0.00233491 0.00230803 0.00227883 0.00224748 0.00221417 0.00217908 0.0021424 0.00210435 0.00206511 0.00202489 0.0019839 0.00194233 0.00190039 0.00185826 0.00181615 0.00177423 0.00173269 0.0016917 0.00165142 0.00161201 0.00157362 0.00153639 0.00150046 0.00146594 0.00143297 0.00140164 0.00137206 0.00134431 0.00131848 0.00129466 0.0012729 0.00125327 0.00123583 0.00122061 0.00120767 0.00119704 0.00118874 0.0011828 0.00117922 0.00117803 
0.00095697 0.000958068 0.000961362 0.000966846 0.000974511 0.000984347 0.000996337 0.00101046 0.0010267 0.00104503 0.0010654 0.0010878 0.00111218 0.00113848 0.00116666 0.00119667 0.00122843 0.00126188 0.00129694 0.00133352 0.00137154 0.00141088 0.00145146 0.00149315 0.00153582 0.00157935 0.00162359 0.0016684 0.00171362 0.00175909 0.00180464 0.00185009 0.00189526 0.00193996 0.00198401 0.0020272 0.00206935 0.00211025 0.00214971 0.00218753 0.00222353 0.00225752 0.00228932 0.00231877 0.0023457 0.00236997 0.00239145 0.00241001 0.00242555 0.00243799 0.00244726 0.00245331 0.00245611 0.00245565 0.00245195 0.00244503 0.00243495 0.00242178 0.00240559 0.00238651 0.00236464 0.00234014 0.00231314 0.00228381 0.00225233 0.00221888 0.00218364 0.00214682 0.00210861 0.00206922 0.00202884 0.00198769 0.00194597 0.00190387 0.0018616 0.00181933 0.00177727 0.00173559 0.00169446 0.00165404 0.0016145 0.00157599 0.00153865 0.0015026 0.00146799 0.00143491 0.00140349 0.00137382 0.001346 0.0013201 0.00129621 0.00127439 0.00125471 0.00123722 0.00122196 0.00120899 0.00119832 0.00119 0.00118404 0.00118046 0.00117927 
0.000959644 0.00096075 0.000964066 0.000969587 0.000977305 0.000987208 0.000999281 0.00101351 0.00102986 0.00104831 0.00106884 0.0010914 0.00111595 0.00114245 0.00117085 0.00120108 0.00123309 0.0012668 0.00130214 0.00133902 0.00137736 0.00141704 0.00145796 0.00150002 0.00154307 0.001587 0.00163165 0.00167689 0.00172255 0.00176847 0.00181448 0.0018604 0.00190605 0.00195123 0.00199575 0.00203943 0.00208205 0.00212341 0.00216333 0.0022016 0.00223803 0.00227243 0.00230462 0.00233443 0.0023617 0.00238627 0.00240801 0.0024268 0.00244254 0.00245513 0.00246451 0.00247063 0.00247346 0.00247298 0.00246922 0.0024622 0.00245197 0.0024386 0.00242219 0.00240285 0.00238069 0.00235586 0.0023285 0.0022988 0.00226691 0.00223304 0.00219736 0.00216009 0.00212142 0.00208156 0.00204072 0.0019991 0.0019569 0.00191434 0.00187161 0.0018289 0.00178639 0.00174428 0.00170274 0.00166192 0.001622 0.00158312 0.00154543 0.00150905 0.00147412 0.00144075 0.00140905 0.00137912 0.00135106 0.00132494 0.00130085 0.00127885 0.00125901 0.00124138 0.001226 0.00121292 0.00120217 0.00119379 0.00118778 0.00118417 0.00118297 
0.000964092 0.00096521 0.000968564 0.000974147 0.000981953 0.000991969 0.00100418 0.00101857 0.00103511 0.00105378 0.00107455 0.00109738 0.00112223 0.00114906 0.00117781 0.00120843 0.00124085 0.001275 0.00131081 0.00134819 0.00138705 0.00142729 0.00146881 0.00151147 0.00155517 0.00159976 0.00164511 0.00169106 0.00173746 0.00178413 0.00183091 0.00187761 0.00192405 0.00197004 0.00201537 0.00205984 0.00210326 0.00214541 0.00218609 0.00222511 0.00226226 0.00229735 0.00233019 0.00236061 0.00238844 0.00241352 0.00243571 0.0024549 0.00247096 0.00248381 0.00249338 0.00249961 0.00250248 0.00250197 0.0024981 0.0024909 0.00248043 0.00246675 0.00244996 0.00243017 0.00240752 0.00238213 0.00235418 0.00232384 0.00229128 0.00225669 0.00222028 0.00218225 0.00214281 0.00210217 0.00206054 0.00201813 0.00197515 0.00193181 0.00188831 0.00184485 0.00180161 0.00175878 0.00171654 0.00167506 0.0016345 0.001595 0.00155672 0.00151979 0.00148434 0.00145047 0.00141831 0.00138795 0.00135949 0.00133301 0.00130859 0.00128629 0.00126617 0.0012483 0.00123272 0.00121947 0.00120858 0.00120008 0.001194 0.00119034 0.00118912 
0.000970303 0.000971439 0.000974845 0.000980515 0.000988443 0.000998617 0.00101102 0.00102564 0.00104245 0.00106143 0.00108254 0.00110575 0.00113101 0.0011583 0.00118755 0.0012187 0.0012517 0.00128647 0.00132294 0.00136102 0.00140063 0.00144165 0.00148399 0.00152752 0.00157211 0.00161764 0.00166396 0.00171092 0.00175835 0.00180609 0.00185396 0.00190177 0.00194933 0.00199644 0.0020429 0.00208851 0.00213305 0.00217631 0.00221808 0.00225816 0.00229633 0.00233239 0.00236616 0.00239744 0.00242606 0.00245186 0.0024747 0.00249443 0.00251096 0.00252417 0.002534 0.0025404 0.00254333 0.00254278 0.00253876 0.00253131 0.00252048 0.00250636 0.00248903 0.00246862 0.00244526 0.0024191 0.0023903 0.00235905 0.00232553 0.00228994 0.00225249 0.00221339 0.00217286 0.00213111 0.00208837 0.00204485 0.00200076 0.00195632 0.00191174 0.00186722 0.00182294 0.00177911 0.00173589 0.00169347 0.001652 0.00161164 0.00157254 0.00153483 0.00149863 0.00146408 0.00143127 0.0014003 0.00137128 0.00134429 0.0013194 0.00129667 0.00127618 0.00125798 0.00124211 0.00122862 0.00121753 0.00120888 0.00120268 0.00119896 0.00119772 
0.000978261 0.000979419 0.000982892 0.000988675 0.00099676 0.00100714 0.00101979 0.00103471 0.00105186 0.00107123 0.00109277 0.00111647 0.00114228 0.00117015 0.00120004 0.00123189 0.00126563 0.0013012 0.00133852 0.00137751 0.00141807 0.00146011 0.00150351 0.00154815 0.00159392 0.00164066 0.00168824 0.0017365 0.00178527 0.00183439 0.00188367 0.00193291 0.00198193 0.00203051 0.00207845 0.00212553 0.00217153 0.00221624 0.00225943 0.00230088 0.00234038 0.00237771 0.00241268 0.00244509 0.00247475 0.00250149 0.00252517 0.00254562 0.00256275 0.00257644 0.00258662 0.00259323 0.00259624 0.00259563 0.00259141 0.00258364 0.00257235 0.00255764 0.00253961 0.00251838 0.0024941 0.00246692 0.00243701 0.00240458 0.00236981 0.00233291 0.0022941 0.00225361 0.00221166 0.00216848 0.00212428 0.00207931 0.00203379 0.00198792 0.00194194 0.00189603 0.00185042 0.00180528 0.0017608 0.00171716 0.00167452 0.00163304 0.00159287 0.00155415 0.001517 0.00148155 0.0014479 0.00141616 0.00138642 0.00135876 0.00133326 0.00131 0.00128902 0.00127039 0.00125415 0.00124034 0.001229 0.00122015 0.00121382 0.00121001 0.00120874 
0.000987942 0.000989128 0.000992683 0.000998604 0.00100688 0.00101751 0.00103047 0.00104574 0.00106332 0.00108316 0.00110525 0.00112954 0.00115601 0.0011846 0.00121528 0.00124797 0.00128263 0.00131918 0.00135755 0.00139765 0.00143939 0.00148267 0.00152737 0.00157339 0.00162059 0.00166883 0.00171796 0.00176783 0.00181826 0.00186908 0.0019201 0.00197112 0.00202193 0.00207233 0.0021221 0.00217101 0.00221883 0.00226533 0.00231028 0.00235344 0.0023946 0.00243352 0.00246999 0.0025038 0.00253475 0.00256267 0.00258738 0.00260874 0.00262662 0.00264091 0.00265152 0.0026584 0.0026615 0.00266081 0.00265636 0.00264817 0.00263631 0.00262087 0.00260196 0.00257971 0.00255427 0.00252582 0.00249454 0.00246063 0.0024243 0.00238577 0.00234528 0.00230306 0.00225934 0.00221437 0.00216838 0.00212162 0.00207431 0.00202668 0.00197895 0.00193135 0.00188407 0.00183732 0.00179128 0.00174613 0.00170205 0.0016592 0.00161772 0.00157775 0.00153943 0.00150288 0.0014682 0.0014355 0.00140488 0.00137641 0.00135017 0.00132623 0.00130466 0.00128551 0.00126881 0.00125462 0.00124297 0.00123387 0.00122737 0.00122345 0.00122215 
0.000999323 0.00100054 0.00100419 0.00101028 0.00101878 0.0010297 0.00104302 0.00105873 0.0010768 0.0010972 0.00111993 0.00114493 0.00117218 0.00120163 0.00123323 0.00126694 0.00130268 0.00134039 0.00138 0.00142142 0.00146456 0.00150932 0.00155558 0.00160324 0.00165215 0.00170217 0.00175316 0.00180494 0.00185736 0.00191021 0.00196332 0.00201647 0.00206944 0.00212203 0.00217399 0.0022251 0.0022751 0.00232376 0.00237083 0.00241607 0.00245922 0.00250005 0.00253833 0.00257384 0.00260636 0.0026357 0.00266168 0.00268413 0.00270292 0.00271793 0.00272907 0.00273627 0.00273948 0.00273871 0.00273395 0.00272526 0.00271271 0.00269638 0.0026764 0.00265291 0.00262608 0.00259609 0.00256314 0.00252745 0.00248923 0.00244874 0.00240622 0.0023619 0.00231606 0.00226894 0.00222079 0.00217187 0.00212241 0.00207266 0.00202285 0.00197321 0.00192394 0.00187526 0.00182736 0.00178042 0.00173462 0.00169012 0.00164708 0.00160563 0.00156591 0.00152805 0.00149215 0.00145831 0.00142663 0.0013972 0.00137008 0.00134536 0.00132308 0.0013033 0.00128607 0.00127142 0.0012594 0.00125002 0.0012433 0.00123927 0.00123792 
0.00101237 0.00101363 0.00101739 0.00102366 0.00103243 0.00104369 0.00105742 0.00107362 0.00109227 0.00111333 0.00113679 0.00116261 0.00119076 0.0012212 0.00125388 0.00128875 0.00132575 0.00136481 0.00140586 0.00144881 0.00149358 0.00154006 0.00158814 0.0016377 0.0016886 0.00174071 0.00179386 0.00184789 0.00190262 0.00195786 0.00201341 0.00206906 0.00212457 0.00217972 0.00223427 0.00228796 0.00234054 0.00239175 0.00244133 0.00248901 0.00253452 0.00257762 0.00261805 0.00265557 0.00268995 0.00272097 0.00274845 0.0027722 0.00279207 0.00280794 0.0028197 0.00282728 0.00283063 0.00282974 0.00282463 0.00281535 0.00280196 0.00278458 0.00276333 0.00273838 0.00270989 0.00267807 0.00264314 0.00260533 0.00256489 0.00252207 0.00247713 0.00243035 0.002382 0.00233234 0.00228165 0.00223018 0.00217821 0.00212597 0.00207372 0.00202168 0.00197009 0.00191915 0.00186906 0.00182003 0.00177222 0.00172581 0.00168094 0.00163777 0.00159643 0.00155704 0.00151972 0.00148456 0.00145166 0.00142111 0.00139297 0.00136733 0.00134423 0.00132373 0.00130588 0.00129071 0.00127825 0.00126854 0.00126158 0.00125741 0.00125601 
0.00102705 0.00102834 0.00103224 0.00103872 0.00104779 0.00105943 0.00107364 0.0010904 0.00110969 0.0011315 0.00115579 0.00118254 0.00121172 0.00124329 0.00127719 0.00131339 0.00135182 0.00139242 0.00143511 0.00147981 0.00152644 0.00157489 0.00162504 0.00167678 0.00172997 0.00178446 0.0018401 0.00189671 0.00195411 0.0020121 0.00207047 0.002129 0.00218745 0.00224557 0.00230311 0.00235981 0.00241538 0.00246955 0.00252204 0.00257256 0.00262083 0.00266657 0.00270951 0.00274938 0.00278593 0.00281893 0.00284816 0.00287343 0.00289458 0.00291145 0.00292394 0.00293196 0.00293547 0.00293445 0.00292893 0.00291894 0.00290458 0.00288596 0.00286322 0.00283654 0.00280611 0.00277215 0.0027349 0.00269462 0.00265157 0.00260604 0.0025583 0.00250864 0.00245737 0.00240477 0.00235112 0.00229671 0.00224182 0.0021867 0.00213163 0.00207683 0.00202255 0.00196901 0.00191642 0.00186498 0.00181487 0.00176625 0.0017193 0.00167416 0.00163096 0.00158983 0.00155088 0.00151421 0.00147992 0.00144809 0.0014188 0.0013921 0.00136807 0.00134676 0.00132819 0.00131243 0.00129948 0.00128939 0.00128217 0.00127783 0.00127638 
0.00104331 0.00104466 0.00104869 0.00105541 0.00106481 0.00107689 0.00109162 0.00110901 0.00112903 0.00115167 0.0011769 0.00120469 0.00123502 0.00126785 0.00130313 0.00134081 0.00138085 0.00142318 0.00146772 0.0015144 0.00156312 0.00161378 0.00166628 0.00172049 0.00177627 0.00183347 0.00189193 0.00195147 0.0020119 0.00207302 0.00213461 0.00219642 0.00225822 0.00231974 0.00238071 0.00244085 0.00249986 0.00255744 0.00261328 0.00266708 0.00271853 0.00276732 0.00281316 0.00285574 0.00289481 0.0029301 0.00296137 0.0029884 0.00301101 0.00302905 0.00304238 0.00305092 0.00305462 0.00305345 0.00304743 0.00303663 0.00302113 0.00300107 0.0029766 0.00294791 0.00291523 0.00287879 0.00283886 0.00279572 0.00274966 0.00270099 0.00265002 0.00259706 0.00254243 0.00248644 0.0024294 0.00237162 0.00231338 0.00225498 0.00219668 0.00213874 0.0020814 0.00202491 0.00196947 0.00191529 0.00186256 0.00181146 0.00176215 0.00171477 0.00166948 0.00162638 0.00158559 0.00154723 0.00151137 0.00147811 0.00144751 0.00141964 0.00139456 0.00137232 0.00135297 0.00133653 0.00132304 0.00131252 0.001305 0.00130048 0.00129897 
0.00106112 0.00106252 0.00106671 0.00107369 0.00108346 0.00109601 0.00111133 0.00112941 0.00115023 0.00117379 0.00120006 0.001229 0.00126061 0.00129483 0.00133164 0.00137099 0.00141281 0.00145706 0.00150366 0.00155254 0.0016036 0.00165674 0.00171186 0.00176883 0.0018275 0.00188774 0.00194937 0.00201221 0.00207606 0.00214071 0.00220592 0.00227146 0.00233705 0.00240243 0.00246729 0.00253134 0.00259426 0.00265573 0.0027154 0.00277295 0.00282804 0.00288033 0.00292949 0.0029752 0.00301716 0.00305507 0.00308868 0.00311775 0.00314206 0.00316144 0.00317574 0.00318488 0.00318878 0.00318743 0.00318085 0.0031691 0.00315229 0.00313056 0.00310409 0.0030731 0.00303782 0.00299853 0.00295551 0.00290909 0.00285957 0.00280731 0.00275264 0.0026959 0.00263743 0.00257759 0.0025167 0.00245508 0.00239306 0.00233093 0.00226898 0.00220748 0.0021467 0.00208687 0.00202822 0.00197097 0.00191531 0.00186142 0.00180946 0.00175959 0.00171195 0.00166666 0.00162383 0.00158357 0.00154597 0.00151111 0.00147906 0.00144988 0.00142364 0.00140038 0.00138014 0.00136296 0.00134886 0.00133788 0.00133002 0.00132529 0.00132372 
0.00108042 0.00108187 0.00108624 0.00109351 0.00110368 0.00111675 0.0011327 0.00115154 0.00117325 0.00119782 0.00122522 0.00125543 0.00128844 0.0013242 0.00136269 0.00140386 0.00144765 0.00149402 0.00154289 0.0015942 0.00164784 0.00170373 0.00176176 0.00182179 0.00188369 0.00194731 0.00201247 0.00207899 0.00214666 0.00221526 0.00228454 0.00235426 0.00242412 0.00249384 0.0025631 0.00263157 0.00269892 0.00276478 0.0028288 0.00289061 0.00294984 0.00300611 0.00305907 0.00310835 0.00315361 0.00319454 0.00323083 0.00326222 0.00328848 0.0033094 0.00332482 0.00333463 0.00333877 0.00333721 0.00332997 0.00331714 0.00329882 0.00327517 0.00324641 0.00321276 0.00317451 0.00313195 0.00308541 0.00303523 0.00298178 0.00292543 0.00286654 0.00280551 0.0027427 0.00267849 0.00261324 0.0025473 0.00248101 0.00241468 0.00234863 0.00228315 0.0022185 0.00215495 0.00209272 0.00203204 0.00197311 0.00191612 0.00186122 0.00180858 0.00175834 0.00171062 0.00166553 0.00162318 0.00158365 0.00154703 0.00151338 0.00148277 0.00145524 0.00143086 0.00140965 0.00139165 0.00137689 0.00136538 0.00135715 0.00135221 0.00135056 
0.00110115 0.00110267 0.00110721 0.0011148 0.0011254 0.00113904 0.00115569 0.00117536 0.00119803 0.00122369 0.00125232 0.00128392 0.00131845 0.00135589 0.00139621 0.00143937 0.00148532 0.00153401 0.00158538 0.00163934 0.00169583 0.00175474 0.00181596 0.00187937 0.00194484 0.00201219 0.00208126 0.00215186 0.00222378 0.00229677 0.0023706 0.00244497 0.00251961 0.00259419 0.00266839 0.00274183 0.00281416 0.00288499 0.00295393 0.00302056 0.00308448 0.00314527 0.00320254 0.00325587 0.00330491 0.00334927 0.00338862 0.00342267 0.00345115 0.00347382 0.00349052 0.00350111 0.00350552 0.00350371 0.00349572 0.00348164 0.00346158 0.00343574 0.00340435 0.00336768 0.00332603 0.00327974 0.00322918 0.00317474 0.00311681 0.00305581 0.00299216 0.00292628 0.00285857 0.00278944 0.00271929 0.00264849 0.0025774 0.00250638 0.00243576 0.00236583 0.00229688 0.00222918 0.00216298 0.00209851 0.00203596 0.00197553 0.0019174 0.00186171 0.00180861 0.00175821 0.00171064 0.00166599 0.00162435 0.0015858 0.0015504 0.00151822 0.0014893 0.00146368 0.00144142 0.00142253 0.00140704 0.00139497 0.00138634 0.00138115 0.00137943 
0.00112325 0.00112483 0.00112958 0.0011375 0.00114858 0.00116282 0.00118022 0.00120078 0.00122449 0.00125133 0.0012813 0.00131439 0.00135058 0.00138984 0.00143215 0.00147747 0.00152576 0.00157697 0.00163105 0.00168792 0.00174751 0.00180972 0.00187445 0.00194157 0.00201094 0.0020824 0.00215579 0.00223089 0.0023075 0.00238536 0.00246422 0.00254378 0.00262373 0.00270374 0.00278344 0.00286246 0.00294038 0.00301679 0.00309126 0.00316332 0.00323254 0.00329845 0.00336061 0.00341855 0.00347186 0.00352013 0.00356297 0.00360005 0.00363106 0.00365574 0.00367389 0.00368536 0.00369007 0.00368798 0.00367913 0.00366361 0.00364157 0.00361322 0.00357883 0.0035387 0.00349317 0.00344264 0.00338752 0.00332823 0.00326524 0.003199 0.00312997 0.00305862 0.00298539 0.00291074 0.0028351 0.00275886 0.00268244 0.00260619 0.00253047 0.00245561 0.0023819 0.00230962 0.00223903 0.00217037 0.00210384 0.00203965 0.00197796 0.00191893 0.00186269 0.00180938 0.0017591 0.00171195 0.00166801 0.00162736 0.00159005 0.00155616 0.00152572 0.00149878 0.00147536 0.0014555 0.00143923 0.00142655 0.00141748 0.00141204 0.00141023 
0.00114665 0.0011483 0.00115327 0.00116154 0.00117313 0.00118803 0.00120623 0.00122774 0.00125256 0.00128068 0.00131209 0.00134679 0.00138475 0.00142597 0.00147042 0.00151807 0.0015689 0.00162284 0.00167986 0.00173988 0.00180284 0.00186864 0.00193718 0.00200835 0.00208199 0.00215795 0.00223606 0.00231612 0.00239789 0.00248112 0.00256554 0.00265084 0.00273669 0.00282273 0.00290858 0.00299381 0.00307798 0.00316065 0.00324132 0.00331951 0.0033947 0.00346639 0.00353407 0.00359723 0.00365539 0.00370809 0.0037549 0.00379543 0.00382932 0.00385628 0.00387609 0.00388857 0.00389361 0.00389119 0.00388135 0.00386419 0.00383988 0.00380867 0.00377085 0.00372678 0.00367685 0.00362151 0.00356121 0.00349644 0.00342772 0.00335556 0.00328048 0.00320298 0.00312357 0.00304274 0.00296096 0.00287867 0.00279631 0.00271426 0.0026329 0.00255258 0.00247361 0.00239629 0.00232088 0.00224762 0.00217674 0.00210842 0.00204285 0.00198017 0.00192053 0.00186405 0.00181082 0.00176096 0.00171453 0.0016716 0.00163225 0.00159651 0.00156443 0.00153605 0.00151139 0.0014905 0.00147337 0.00146004 0.0014505 0.00144478 0.00144287 
0.00117127 0.001173 0.0011782 0.00118686 0.00119898 0.00121457 0.00123364 0.00125617 0.00128218 0.00131165 0.0013446 0.00138101 0.00142088 0.0014642 0.00151095 0.00156111 0.00161466 0.00167154 0.00173173 0.00179515 0.00186175 0.00193144 0.00200412 0.00207968 0.00215797 0.00223884 0.00232212 0.00240758 0.00249502 0.00258415 0.0026747 0.00276634 0.00285871 0.00295144 0.0030441 0.00313625 0.00322741 0.00331707 0.0034047 0.00348975 0.00357167 0.00364987 0.00372379 0.00379286 0.00385652 0.00391425 0.00396557 0.00401001 0.00404718 0.00407675 0.00409844 0.00411206 0.00411749 0.00411469 0.0041037 0.00408466 0.00405776 0.00402328 0.00398156 0.00393301 0.00387808 0.00381726 0.0037511 0.00368014 0.00360496 0.00352613 0.00344424 0.00335985 0.00327353 0.0031858 0.00309718 0.00300817 0.00291921 0.00283074 0.00274316 0.00265682 0.00257207 0.00248922 0.00240853 0.00233025 0.00225461 0.00218181 0.00211201 0.00204538 0.00198205 0.00192213 0.00186573 0.00181293 0.00176382 0.00171845 0.00167688 0.00163915 0.00160531 0.00157539 0.00154941 0.0015274 0.00150937 0.00149533 0.00148529 0.00147927 0.00147726 
0.00119704 0.00119885 0.00120429 0.00121335 0.00122605 0.00124238 0.00126236 0.00128597 0.00131324 0.00134416 0.00137875 0.00141699 0.00145889 0.00150445 0.00155365 0.00160649 0.00166295 0.00172299 0.00178657 0.00185366 0.00192418 0.00199806 0.00207521 0.00215552 0.00223885 0.00232506 0.00241395 0.00250533 0.00259895 0.00269455 0.00279182 0.00289043 0.00299001 0.00309013 0.00319035 0.00329019 0.00338912 0.00348659 0.00358201 0.00367477 0.00376424 0.00384978 0.00393074 0.00400648 0.00407638 0.00413982 0.00419625 0.00424515 0.00428606 0.00431858 0.00434242 0.00435734 0.00436319 0.00435995 0.00434766 0.00432647 0.00429661 0.0042584 0.00421223 0.00415858 0.00409795 0.00403094 0.00395814 0.00388018 0.00379771 0.00371139 0.00362186 0.00352976 0.0034357 0.00334029 0.00324407 0.0031476 0.00305135 0.00295579 0.00286135 0.00276841 0.00267733 0.00258842 0.00250197 0.00241823 0.00233742 0.00225975 0.00218538 0.00211447 0.00204715 0.00198353 0.00192371 0.00186777 0.00181577 0.00176778 0.00172384 0.001684 0.00164828 0.00161671 0.00158931 0.00156611 0.00154711 0.00153232 0.00152175 0.00151541 0.00151329 